 vasp.5.4.1 24Jun15 (build Jan 04 2019 14:02:05) complex                        
  
 executed on           IFC91_ompi date 2019.03.05  03:06:25
 running on   28 total cores
 distrk:  each k-point on   28 cores,    1 groups
 distr:  one band on NCORES_PER_BAND=   4 cores,    7 groups


--------------------------------------------------------------------------------------------------------


 INCAR:
 POTCAR:    PAW Ga_d 06Jul2010                    
 POTCAR:    PAW As_d 11Apr2003                    
 POTCAR:    PAW Ga_d 06Jul2010                    
   VRHFIN =Ga: s2p1                                                             
   LEXCH  = CA                                                                  
   EATOM  =  2154.4592 eV,  158.3483 Ry                                         
                                                                                
   TITEL  = PAW Ga_d 06Jul2010                                                  
   LULTRA =        F    use ultrasoft PP ?                                      
   IUNSCR =        1    unscreen: 0-lin 1-nonlin 2-no                           
   RPACOR =    1.700    partial core radius                                     
   POMASS =   69.723; ZVAL   =   13.000    mass and valenz                      
   RCORE  =    2.300    outmost cutoff radius                                   
   RWIGS  =    2.300; RWIGS  =    1.217    wigner-seitz radius (au A)           
   ENMAX  =  282.829; ENMIN  =  212.121 eV                                      
   ICORE  =        3    local potential                                         
   LCOR   =        T    correct aug charges                                     
   LPAW   =        T    paw PP                                                  
   EAUG   =  490.690                                                            
   DEXC   =    0.000                                                            
   RMAX   =    2.341    core radius for proj-oper                               
   RAUG   =    1.300    factor for augmentation sphere                          
   RDEP   =    2.413    radius for radial grids                                 
   RDEPT  =    1.856    core radius for aug-charge                              
                                                                                
   Atomic configuration                                                         
    9 entries                                                                   
     n  l   j            E        occ.                                          
     1  0  0.50    -10177.9539   2.0000                                         
     2  0  0.50     -1257.0037   2.0000                                         
     2  1  1.50     -1096.5304   6.0000                                         
     3  0  0.50      -147.0449   2.0000                                         
     3  1  1.50       -98.5146   6.0000                                         
     3  2  2.50       -19.4350  10.0000                                         
     4  0  0.50        -9.1573   2.0000                                         
     4  1  0.50        -2.7399   1.0000                                         
     4  3  2.50        -2.7416   0.0000                                         
   Description                                                                  
     l       E           TYP  RCUT    TYP  RCUT                                 
     2    -19.4350265     23  2.300                                             
     2     -5.4423304     23  2.300                                             
     0     -9.1573136     23  2.300                                             
     0     68.0291300     23  2.300                                             
     1     -2.7399180     23  2.100                                             
     1     81.6349560     23  2.300                                             
     3      6.8029130     23  2.300                                             
  local pseudopotential read in
  partial core-charges read in
  partial kinetic energy density read in
  atomic valenz-charges read in
  non local Contribution for L=           2  read in
    real space projection operators read in
  non local Contribution for L=           2  read in
    real space projection operators read in
  non local Contribution for L=           0  read in
    real space projection operators read in
  non local Contribution for L=           0  read in
    real space projection operators read in
  non local Contribution for L=           1  read in
    real space projection operators read in
  non local Contribution for L=           1  read in
    real space projection operators read in
    PAW grid and wavefunctions read in
 
   number of l-projection  operators is LMAX  =           6
   number of lm-projection operators is LMMAX =          18
 
 POTCAR:    PAW As_d 11Apr2003                    
   VRHFIN =As: d10s2p3                                                          
   LEXCH  = CA                                                                  
   EATOM  =  3100.2560 eV,  227.8624 Ry                                         
                                                                                
   TITEL  = PAW As_d 11Apr2003                                                  
   LULTRA =        F    use ultrasoft PP ?                                      
   IUNSCR =        1    unscreen: 0-lin 1-nonlin 2-no                           
   RPACOR =    2.000    partial core radius                                     
   POMASS =   74.922; ZVAL   =   15.000    mass and valenz                      
   RCORE  =    2.300    outmost cutoff radius                                   
   RWIGS  =    2.300; RWIGS  =    1.217    wigner-seitz radius (au A)           
   ENMAX  =  288.762; ENMIN  =  216.572 eV                                      
   ICORE  =        3    local potential                                         
   LCOR   =        T    correct aug charges                                     
   LPAW   =        T    paw PP                                                  
   EAUG   =  525.949                                                            
   DEXC   =    0.000                                                            
   RMAX   =    2.360    core radius for proj-oper                               
   RAUG   =    1.300    factor for augmentation sphere                          
   RDEP   =    2.432    radius for radial grids                                 
   RDEPT  =    1.871    core radius for aug-charge                              
                                                                                
   Atomic configuration                                                         
    9 entries                                                                   
     n  l   j            E        occ.                                          
     1  0  0.50    -11659.1331   2.0000                                         
     2  0  0.50     -1480.5455   2.0000                                         
     2  1  1.50     -1300.8395   6.0000                                         
     3  0  0.50      -189.0128   2.0000                                         
     3  1  1.50      -133.2331   6.0000                                         
     3  2  2.50       -40.9396  10.0000                                         
     4  0  0.50       -14.6732   2.0000                                         
     4  1  0.50        -5.3484   3.0000                                         
     4  3  2.50        -5.4423   0.0000                                         
   Description                                                                  
     l       E           TYP  RCUT    TYP  RCUT                                 
     2    -40.9396402     23  2.300                                             
     2     -1.3605826     23  2.300                                             
     0    -14.6731860     23  2.300                                             
     0    -12.1858709     23  2.300                                             
     1     -5.3484093     23  2.300                                             
     1      1.7733903     23  2.300                                             
     3     -1.3605826      7  2.300                                             
  local pseudopotential read in
  partial core-charges read in
  partial kinetic energy density read in
  atomic valenz-charges read in
  non local Contribution for L=           2  read in
    real space projection operators read in
  non local Contribution for L=           2  read in
    real space projection operators read in
  non local Contribution for L=           0  read in
    real space projection operators read in
  non local Contribution for L=           0  read in
    real space projection operators read in
  non local Contribution for L=           1  read in
    real space projection operators read in
  non local Contribution for L=           1  read in
    real space projection operators read in
    PAW grid and wavefunctions read in
 
   number of l-projection  operators is LMAX  =           6
   number of lm-projection operators is LMMAX =          18
 
 Optimization of the real space projectors (new method)

 maximal supplied QI-value         = 16.25
 optimisation between [QCUT,QGAM] = [ 11.38, 22.75] = [ 36.24,144.96] Ry 
 Optimized for a Real-space Cutoff    1.35 Angstroem

   l    n(q)    QCUT    max X(q) W(low)/X(q) W(high)/X(q)  e(spline) 
   2      8    11.376     7.160    0.23E-03    0.28E-03    0.13E-06
   2      8    11.376     5.555    0.49E-03    0.56E-03    0.20E-06
   0      9    11.376    12.310    0.60E-04    0.47E-04    0.22E-07
   0      9    11.376     6.591    0.12E-03    0.98E-04    0.49E-07
   1      9    11.376     7.817    0.22E-03    0.30E-03    0.14E-06
   1      9    11.376     2.416    0.19E-03    0.26E-03    0.13E-06
 Optimization of the real space projectors (new method)

 maximal supplied QI-value         = 16.25
 optimisation between [QCUT,QGAM] = [ 11.38, 22.75] = [ 36.24,144.96] Ry 
 Optimized for a Real-space Cutoff    1.27 Angstroem

   l    n(q)    QCUT    max X(q) W(low)/X(q) W(high)/X(q)  e(spline) 
   2      8    11.376    15.961    0.11E-03    0.23E-03    0.99E-07
   2      8    11.376     6.274    0.17E-03    0.37E-03    0.13E-06
   0      9    11.376    98.969    0.92E-04    0.20E-03    0.90E-07
   0      9    11.376    79.622    0.98E-04    0.21E-03    0.96E-07
   1      8    11.376    38.979    0.40E-03    0.88E-04    0.16E-06
   1      8    11.376    26.921    0.39E-03    0.93E-04    0.16E-06
  PAW Ga_d 06Jul2010                    :
 energy of atom  1       EATOM=-2154.4592
 kinetic energy error for atom=    0.0027 (will be added to EATOM!!)
  PAW As_d 11Apr2003                    :
 energy of atom  2       EATOM=-3100.2560
 kinetic energy error for atom=    0.0019 (will be added to EATOM!!)
 
 
 POSCAR: POSCAR with -8.23987132543              
  positions in direct lattice
  No initial velocities read in
 exchange correlation table for  LEXCH =        2
   RHO(1)=    0.500       N(1)  =     2000
   RHO(2)=  100.500       N(2)  =     4000
 


--------------------------------------------------------------------------------------------------------


 ion  position               nearest neighbor table
   1  0.000  0.000  0.000-  36 2.48  39 2.48  41 2.48  48 2.48
   2  0.500  0.000  0.000-  35 2.48  40 2.48  42 2.48  47 2.48
   3  0.000  0.250  0.250-  48 2.48  49 2.48  55 2.48  60 2.48
   4  0.500  0.250  0.250-  47 2.48  50 2.48  56 2.48  59 2.48
   5  0.250  0.000  0.750-  36 2.48  42 2.48  62 2.48  64 2.48
   6  0.750  0.000  0.750-  35 2.48  41 2.48  61 2.48  63 2.48
   7  0.250  0.250  0.500-  44 2.48  56 2.48  60 2.48  62 2.48
   8  0.750  0.250  0.500-  43 2.48  55 2.48  59 2.48  61 2.48
   9  0.250  0.500  0.250-  38 2.48  50 2.48  54 2.48  60 2.48
  10  0.750  0.500  0.250-  37 2.48  49 2.48  53 2.48  59 2.48
  11  0.250  0.750  0.000-  36 2.48  40 2.48  52 2.48  54 2.48
  12  0.750  0.750  0.000-  35 2.48  39 2.48  51 2.48  53 2.48
  13  0.000  0.750  0.250-  37 2.48  39 2.48  54 2.48  58 2.48
  14  0.500  0.750  0.250-  38 2.48  40 2.48  53 2.48  57 2.48
  15  0.000  0.500  0.500-  34 2.48  37 2.48  43 2.48  60 2.48
  16  0.500  0.500  0.500-  33 2.48  38 2.48  44 2.48  59 2.48
  17  0.250  0.750  0.500-  34 2.48  38 2.48  58 2.48  64 2.48
  18  0.750  0.750  0.500-  33 2.48  37 2.48  57 2.48  63 2.48
  19  0.250  0.000  0.250-  40 2.48  48 2.48  56 2.48  58 2.48
  20  0.750  0.000  0.250-  39 2.48  47 2.48  55 2.48  57 2.48
  21  0.000  0.000  0.500-  55 2.48  58 2.48  62 2.48  63 2.48
  22  0.500  0.000  0.500-  56 2.48  57 2.48  61 2.48  64 2.48
  23  0.250  0.500  0.750-  34 2.48  44 2.48  46 2.48  52 2.48
  24  0.750  0.500  0.750-  33 2.48  43 2.48  45 2.48  51 2.48
  25  0.000  0.250  0.750-  41 2.48  43 2.48  46 2.48  62 2.48
  26  0.500  0.250  0.750-  42 2.48  44 2.48  45 2.48  61 2.48
  27  0.000  0.750  0.750-  34 2.48  36 2.48  51 2.48  63 2.48
  28  0.500  0.750  0.750-  33 2.48  35 2.48  52 2.48  64 2.48
  29  0.000  0.500  0.000-  46 2.48  49 2.48  51 2.48  54 2.48
  30  0.500  0.500  0.000-  45 2.48  50 2.48  52 2.48  53 2.48
  31  0.250  0.250  0.000-  42 2.48  46 2.48  48 2.48  50 2.48
  32  0.750  0.250  0.000-  41 2.48  45 2.48  47 2.48  49 2.48
  33  0.625  0.625  0.625-  16 2.48  18 2.48  24 2.48  28 2.48
  34  0.125  0.625  0.625-  15 2.48  17 2.48  23 2.48  27 2.48
  35  0.625  0.875  0.875-   2 2.48   6 2.48  12 2.48  28 2.48
  36  0.125  0.875  0.875-   1 2.48   5 2.48  11 2.48  27 2.48
  37  0.875  0.625  0.375-  10 2.48  13 2.48  15 2.48  18 2.48
  38  0.375  0.625  0.375-   9 2.48  14 2.48  16 2.48  17 2.48
  39  0.875  0.875  0.125-   1 2.48  12 2.48  13 2.48  20 2.48
  40  0.375  0.875  0.125-   2 2.48  11 2.48  14 2.48  19 2.48
  41  0.875  0.125  0.875-   1 2.48   6 2.48  25 2.48  32 2.48
  42  0.375  0.125  0.875-   2 2.48   5 2.48  26 2.48  31 2.48
  43  0.875  0.375  0.625-   8 2.48  15 2.48  24 2.48  25 2.48
  44  0.375  0.375  0.625-   7 2.48  16 2.48  23 2.48  26 2.48
  45  0.625  0.375  0.875-  24 2.48  26 2.48  30 2.48  32 2.48
  46  0.125  0.375  0.875-  23 2.48  25 2.48  29 2.48  31 2.48
  47  0.625  0.125  0.125-   2 2.48   4 2.48  20 2.48  32 2.48
  48  0.125  0.125  0.125-   1 2.48   3 2.48  19 2.48  31 2.48
  49  0.875  0.375  0.125-   3 2.48  10 2.48  29 2.48  32 2.48
  50  0.375  0.375  0.125-   4 2.48   9 2.48  30 2.48  31 2.48
  51  0.875  0.625  0.875-  12 2.48  24 2.48  27 2.48  29 2.48
  52  0.375  0.625  0.875-  11 2.48  23 2.48  28 2.48  30 2.48
  53  0.625  0.625  0.125-  10 2.48  12 2.48  14 2.48  30 2.48
  54  0.125  0.625  0.125-   9 2.48  11 2.48  13 2.48  29 2.48
  55  0.875  0.125  0.375-   3 2.48   8 2.48  20 2.48  21 2.48
  56  0.375  0.125  0.375-   4 2.48   7 2.48  19 2.48  22 2.48
  57  0.625  0.875  0.375-  14 2.48  18 2.48  20 2.48  22 2.48
  58  0.125  0.875  0.375-  13 2.48  17 2.48  19 2.48  21 2.48
  59  0.625  0.375  0.375-   4 2.48   8 2.48  10 2.48  16 2.48
  60  0.125  0.375  0.375-   3 2.48   7 2.48   9 2.48  15 2.48
  61  0.625  0.125  0.625-   6 2.48   8 2.48  22 2.48  26 2.48
  62  0.125  0.125  0.625-   5 2.48   7 2.48  21 2.48  25 2.48
  63  0.875  0.875  0.625-   6 2.48  18 2.48  21 2.48  27 2.48
  64  0.375  0.875  0.625-   5 2.48  17 2.48  22 2.48  28 2.48
 
  LATTYP: Found a simple cubic cell.
 ALAT       =    11.4381110792
  
  Lattice vectors:
  
 A1 = (  11.4381110792,   0.0000000000,   0.0000000000)
 A2 = (   0.0000000000,  11.4381110792,   0.0000000000)
 A3 = (   0.0000000000,   0.0000000000,  11.4381110792)


Analysis of symmetry for initial positions (statically):
=====================================================================
 Subroutine PRICEL returns following result:
 
  LATTYP: Found a face centered cubic cell.
 ALAT       =     5.7190555396
  
  Lattice vectors:
  
 A1 = (   2.8595277698,   2.8595277698,   0.0000000000)
 A2 = (   2.8595277698,   0.0000000000,  -2.8595277698)
 A3 = (   0.0000000000,   2.8595277698,  -2.8595277698)
 
  32 primitive cells build up your supercell.
 

 Routine SETGRP: Setting up the symmetry group for a 
 simple cubic supercell.


 Subroutine GETGRP returns: Found 24 space group operations
 (whereof 24 operations were pure point group operations)
 out of a pool of 48 trial point group operations.


The static configuration has the point symmetry T_d .


Analysis of symmetry for dynamics (positions and initial velocities):
=====================================================================
 Subroutine PRICEL returns following result:
 
  LATTYP: Found a face centered cubic cell.
 ALAT       =     5.7190555396
  
  Lattice vectors:
  
 A1 = (   2.8595277698,   2.8595277698,   0.0000000000)
 A2 = (   2.8595277698,   0.0000000000,  -2.8595277698)
 A3 = (   0.0000000000,   2.8595277698,  -2.8595277698)
 
  32 primitive cells build up your supercell.
 

 Routine SETGRP: Setting up the symmetry group for a 
 simple cubic supercell.


 Subroutine GETGRP returns: Found 24 space group operations
 (whereof 24 operations were pure point group operations)
 out of a pool of 48 trial point group operations.


The dynamic configuration has the point symmetry T_d .


 Subroutine INISYM returns: Found 24 space group operations
 (whereof 24 operations are pure point group operations),
 and found    32 'primitive' translations

 
 
 KPOINTS: koint                                   

Automatic generation of k-mesh.
Space group operators:
 irot       det(A)        alpha          n_x          n_y          n_z        tau_x        tau_y        tau_z
    1     1.000000     0.000001     1.000000     0.000000     0.000000     0.000000     0.000000     0.000000
    2     1.000000   120.000000    -0.577350    -0.577350    -0.577350     0.000000     0.000000     0.000000
    3     1.000000   120.000000     0.577350     0.577350     0.577350     0.000000     0.000000     0.000000
    4    -1.000000    90.000000     0.000000     0.000000    -1.000000     0.000000     0.000000     0.000000
    5    -1.000000   180.000000     0.000000     0.707107     0.707107     0.000000     0.000000     0.000000
    6    -1.000000    90.000000     0.000000     1.000000     0.000000     0.000000     0.000000     0.000000
    7     1.000000   180.000000     0.000000     0.000000     1.000000     0.000000     0.000000     0.000000
    8     1.000000   120.000000    -0.577350     0.577350     0.577350     0.000000     0.000000     0.000000
    9     1.000000   120.000000    -0.577350     0.577350    -0.577350     0.000000     0.000000     0.000000
   10    -1.000000    90.000000     0.000000     0.000000     1.000000     0.000000     0.000000     0.000000
   11    -1.000000    90.000000    -1.000000     0.000000     0.000000     0.000000     0.000000     0.000000
   12    -1.000000   180.000000     0.707107     0.000000     0.707107     0.000000     0.000000     0.000000
   13     1.000000   120.000000     0.577350    -0.577350     0.577350     0.000000     0.000000     0.000000
   14     1.000000   120.000000    -0.577350    -0.577350     0.577350     0.000000     0.000000     0.000000
   15     1.000000   180.000000     1.000000     0.000000     0.000000     0.000000     0.000000     0.000000
   16    -1.000000    90.000000     0.000000    -1.000000     0.000000     0.000000     0.000000     0.000000
   17    -1.000000   180.000000     0.707107     0.707107     0.000000     0.000000     0.000000     0.000000
   18    -1.000000    90.000000     1.000000     0.000000     0.000000     0.000000     0.000000     0.000000
   19     1.000000   120.000000     0.577350    -0.577350    -0.577350     0.000000     0.000000     0.000000
   20     1.000000   180.000000     0.000000     1.000000     0.000000     0.000000     0.000000     0.000000
   21     1.000000   120.000000     0.577350     0.577350    -0.577350     0.000000     0.000000     0.000000
   22    -1.000000   180.000000     0.000000    -0.707107     0.707107     0.000000     0.000000     0.000000
   23    -1.000000   180.000000     0.707107    -0.707107     0.000000     0.000000     0.000000     0.000000
   24    -1.000000   180.000000     0.707107     0.000000    -0.707107     0.000000     0.000000     0.000000
 
 Subroutine IBZKPT returns following result:
 ===========================================
 
 Found      4 irreducible k-points:
 
 Following reciprocal coordinates:
            Coordinates               Weight
  0.000000  0.000000  0.000000      1.000000
  0.333333  0.000000  0.000000      6.000000
  0.333333  0.333333  0.000000     12.000000
  0.333333  0.333333  0.333333      8.000000
 
 Following cartesian coordinates:
            Coordinates               Weight
  0.000000  0.000000  0.000000      1.000000
  0.029142  0.000000  0.000000      6.000000
  0.029142  0.029142  0.000000     12.000000
  0.029142  0.029142  0.029142      8.000000
 


--------------------------------------------------------------------------------------------------------




 Dimension of arrays:
   k-points           NKPTS =      4   k-points in BZ     NKDIM =      4   number of bands    NBANDS=    539
   number of dos      NEDOS =    301   number of ions     NIONS =     64
   non local maximal  LDIM  =      6   non local SUM 2l+1 LMDIM =     18
   total plane-waves  NPLWV = 262144
   max r-space proj   IRMAX =   1852   max aug-charges    IRDMAX=   6837
   dimension x,y,z NGX =    64 NGY =   64 NGZ =   64
   dimension x,y,z NGXF=   128 NGYF=  128 NGZF=  128
   support grid    NGXF=   128 NGYF=  128 NGZF=  128
   ions per type =              32  32
 NGX,Y,Z   is equivalent  to a cutoff of   9.30,  9.30,  9.30 a.u.
 NGXF,Y,Z  is equivalent  to a cutoff of  18.60, 18.60, 18.60 a.u.


 I would recommend the setting:
   dimension x,y,z NGX =    63 NGY =   63 NGZ =   63
 SYSTEM =  unknown system                          
 POSCAR =  POSCAR with -8.23987132543              

 Startparameter for this run:
   NWRITE =      2    write-flag & timer
   PREC   = normal    normal or accurate (medium, high low for compatibility)
   ISTART =      0    job   : 0-new  1-cont  2-samecut
   ICHARG =      2    charge: 1-file 2-atom 10-const
   ISPIN  =      1    spin polarized calculation?
   LNONCOLLINEAR =      F non collinear calculations
   LSORBIT =      F    spin-orbit coupling
   INIWAV =      1    electr: 0-lowe 1-rand  2-diag
   LASPH  =      F    aspherical Exc in radial PAW
   METAGGA=      F    non-selfconsistent MetaGGA calc.

 Electronic Relaxation 1
   ENCUT  =  500.0 eV  36.75 Ry    6.06 a.u.  20.85 20.85 20.85*2*pi/ulx,y,z
   ENINI  =  500.0     initial cutoff
   ENAUG  =  525.9 eV  augmentation charge cutoff
   NELM   =     60;   NELMIN=  2; NELMDL= -5     # of ELM steps 
   EDIFF  = 0.1E-05   stopping-criterion for ELM
   LREAL  =      T    real-space projection
   NLSPLINE    = F    spline interpolate recip. space projectors
   LCOMPAT=      F    compatible to vasp.4.4
   GGA_COMPAT  = T    GGA compatible to vasp.4.4-vasp.4.6
   LMAXPAW     = -100 max onsite density
   LMAXMIX     =    2 max onsite mixed and CHGCAR
   VOSKOWN=      0    Vosko Wilk Nusair interpolation
   ROPT   =   -0.00050  -0.00050
 Ionic relaxation
   EDIFFG = -.2E-01   stopping-criterion for IOM
   NSW    =    100    number of steps for IOM
   NBLOCK =      1;   KBLOCK =    100    inner block; outer block 
   IBRION =      2    ionic relax: 0-MD 1-quasi-New 2-CG
   NFREE  =      1    steps in history (QN), initial steepest desc. (CG)
   ISIF   =      2    stress and relaxation
   IWAVPR =     11    prediction:  0-non 1-charg 2-wave 3-comb
   ISYM   =      2    0-nonsym 1-usesym 2-fastsym
   LCORR  =      T    Harris-Foulkes like correction to forces

   POTIM  = 0.5000    time-step for ionic-motion
   TEIN   =    0.0    initial temperature
   TEBEG  =    0.0;   TEEND  =   0.0 temperature during run
   SMASS  =  -3.00    Nose mass-parameter (am)
   estimated Nose-frequenzy (Omega)   =  0.10E-29 period in steps =****** mass=  -0.299E-26a.u.
   SCALEE = 1.0000    scale energy and forces
   NPACO  =    256;   APACO  = 16.0  distance and # of slots for P.C.
   PSTRESS=    0.0 pullay stress

  Mass of Ions in am
   POMASS =  69.72 74.92
  Ionic Valenz
   ZVAL   =  13.00 15.00
  Atomic Wigner-Seitz radii
   RWIGS  =  -1.00 -1.00
  virtual crystal weights 
   VCA    =   1.00  1.00
   NELECT =     896.0000    total number of electrons
   NUPDOWN=      -1.0000    fix difference up-down

 DOS related values:
   EMIN   =  10.00;   EMAX   =-10.00  energy-range for DOS
   EFERMI =   0.00
   ISMEAR =     0;   SIGMA  =   0.01  broadening in eV -4-tet -1-fermi 0-gaus

 Electronic relaxation 2 (details)
   IALGO  =     38    algorithm
   LDIAG  =      T    sub-space diagonalisation (order eigenvalues)
   LSUBROT=      F    optimize rotation matrix (better conditioning)
   TURBO    =      0    0=normal 1=particle mesh
   IRESTART =      0    0=no restart 2=restart with 2 vectors
   NREBOOT  =      0    no. of reboots
   NMIN     =      0    reboot dimension
   EREF     =   0.00    reference energy to select bands
   IMIX   =      4    mixing-type and parameters
     AMIX     =   0.40;   BMIX     =  1.00
     AMIX_MAG =   1.60;   BMIX_MAG =  1.00
     AMIN     =   0.10
     WC   =   100.;   INIMIX=   1;  MIXPRE=   1;  MAXMIX= -45

 Intra band minimization:
   WEIMIN = 0.0010     energy-eigenvalue tresh-hold
   EBREAK =  0.46E-09  absolut break condition
   DEPER  =   0.30     relativ break condition  

   TIME   =   0.40     timestep for ELM

  volume/ion in A,a.u.               =      23.38       157.79
  Fermi-wavevector in a.u.,A,eV,Ry     =   1.379822  2.607486 25.904266  1.903910
  Thomas-Fermi vector in A             =   2.504756
 
 Write flags
   LWAVE  =      F    write WAVECAR
   LCHARG =      F    write CHGCAR
   LVTOT  =      F    write LOCPOT, total local potential
   LVHAR  =      F    write LOCPOT, Hartree potential only
   LELF   =      F    write electronic localiz. function (ELF)
   LORBIT =      0    0 simple, 1 ext, 2 COOP (PROOUT)


 Dipole corrections
   LMONO  =      F    monopole corrections only (constant potential shift)
   LDIPOL =      F    correct potential (dipole corrections)
   IDIPOL =      0    1-x, 2-y, 3-z, 4-all directions 
   EPSILON=  1.0000000 bulk dielectric constant

 Exchange correlation treatment:
   GGA     =    --    GGA type
   LEXCH   =     2    internal setting for exchange type
   VOSKOWN=      0    Vosko Wilk Nusair interpolation
   LHFCALC =     F    Hartree Fock is set to
   LHFONE  =     F    Hartree Fock one center treatment
   AEXX    =    0.0000 exact exchange contribution

 Linear response parameters
   LEPSILON=     F    determine dielectric tensor
   LRPA    =     F    only Hartree local field effects (RPA)
   LNABLA  =     F    use nabla operator in PAW spheres
   LVEL    =     F    velocity operator in full k-point grid
   LINTERFAST=   F  fast interpolation
   KINTER  =     0    interpolate to denser k-point grid
   CSHIFT  =0.1000    complex shift for real part using Kramers Kronig
   OMEGAMAX=  -1.0    maximum frequency
   DEG_THRESHOLD= 0.2000000E-02 threshold for treating states as degnerate
   RTIME   =    0.100 relaxation time in fs

 Orbital magnetization related:
   ORBITALMAG=     F  switch on orbital magnetization
   LCHIMAG   =     F  perturbation theory with respect to B field
   DQ        =  0.001000  dq finite difference perturbation B field



--------------------------------------------------------------------------------------------------------


 conjugate gradient relaxation of ions
 charge density and potential will be updated during run
 non-spin polarized calculation
 Variant of blocked Davidson
 Davidson routine will perform the subspace rotation
 perform sub-space diagonalisation
    after iterative eigenvector-optimisation
 modified Broyden-mixing scheme, WC =      100.0
 initial mixing is a Kerker type mixing with AMIX =  0.4000 and BMIX =      1.0000
 Hartree-type preconditioning will be used
 using additional bands           91
 real space projection scheme for non local part
 use partial core corrections
 calculate Harris-corrections to forces 
   (improved forces if not selfconsistent)
 use of overlap-Matrix (Vanderbilt PP)
 Gauss-broadening in eV      SIGMA  =   0.01


--------------------------------------------------------------------------------------------------------


  energy-cutoff  :      500.00
  volume of cell :     1496.45
      direct lattice vectors                 reciprocal lattice vectors
    11.438111079  0.000000000  0.000000000     0.087427023  0.000000000  0.000000000
     0.000000000 11.438111079  0.000000000     0.000000000  0.087427023  0.000000000
     0.000000000  0.000000000 11.438111079     0.000000000  0.000000000  0.087427023

  length of vectors
    11.438111079 11.438111079 11.438111079     0.087427023  0.087427023  0.087427023


 
 k-points in units of 2pi/SCALE and weight: koint                                   
   0.00000000  0.00000000  0.00000000       0.037
   0.02914234  0.00000000  0.00000000       0.222
   0.02914234  0.02914234  0.00000000       0.444
   0.02914234  0.02914234  0.02914234       0.296
 
 k-points in reciprocal lattice and weights: koint                                   
   0.00000000  0.00000000  0.00000000       0.037
   0.33333333  0.00000000  0.00000000       0.222
   0.33333333  0.33333333  0.00000000       0.444
   0.33333333  0.33333333  0.33333333       0.296
 
 position of ions in fractional coordinates (direct lattice) 
   0.00000000  0.00000000  0.00000000
   0.50000000  0.00000000  0.00000000
   0.00000000  0.25000000  0.25000000
   0.50000000  0.25000000  0.25000000
   0.25000000  0.00000000  0.75000000
   0.75000000  0.00000000  0.75000000
   0.25000000  0.25000000  0.50000000
   0.75000000  0.25000000  0.50000000
   0.25000000  0.50000000  0.25000000
   0.75000000  0.50000000  0.25000000
   0.25000000  0.75000000  0.00000000
   0.75000000  0.75000000  0.00000000
   0.00000000  0.75000000  0.25000000
   0.50000000  0.75000000  0.25000000
   0.00000000  0.50000000  0.50000000
   0.50000000  0.50000000  0.50000000
   0.25000000  0.75000000  0.50000000
   0.75000000  0.75000000  0.50000000
   0.25000000  0.00000000  0.25000000
   0.75000000  0.00000000  0.25000000
   0.00000000  0.00000000  0.50000000
   0.50000000  0.00000000  0.50000000
   0.25000000  0.50000000  0.75000000
   0.75000000  0.50000000  0.75000000
   0.00000000  0.25000000  0.75000000
   0.50000000  0.25000000  0.75000000
   0.00000000  0.75000000  0.75000000
   0.50000000  0.75000000  0.75000000
   0.00000000  0.50000000  0.00000000
   0.50000000  0.50000000  0.00000000
   0.25000000  0.25000000  0.00000000
   0.75000000  0.25000000  0.00000000
   0.62500000  0.62500000  0.62500000
   0.12500000  0.62500000  0.62500000
   0.62500000  0.87500000  0.87500000
   0.12500000  0.87500000  0.87500000
   0.87500000  0.62500000  0.37500000
   0.37500000  0.62500000  0.37500000
   0.87500000  0.87500000  0.12500000
   0.37500000  0.87500000  0.12500000
   0.87500000  0.12500000  0.87500000
   0.37500000  0.12500000  0.87500000
   0.87500000  0.37500000  0.62500000
   0.37500000  0.37500000  0.62500000
   0.62500000  0.37500000  0.87500000
   0.12500000  0.37500000  0.87500000
   0.62500000  0.12500000  0.12500000
   0.12500000  0.12500000  0.12500000
   0.87500000  0.37500000  0.12500000
   0.37500000  0.37500000  0.12500000
   0.87500000  0.62500000  0.87500000
   0.37500000  0.62500000  0.87500000
   0.62500000  0.62500000  0.12500000
   0.12500000  0.62500000  0.12500000
   0.87500000  0.12500000  0.37500000
   0.37500000  0.12500000  0.37500000
   0.62500000  0.87500000  0.37500000
   0.12500000  0.87500000  0.37500000
   0.62500000  0.37500000  0.37500000
   0.12500000  0.37500000  0.37500000
   0.62500000  0.12500000  0.62500000
   0.12500000  0.12500000  0.62500000
   0.87500000  0.87500000  0.62500000
   0.37500000  0.87500000  0.62500000
 
 position of ions in cartesian coordinates  (Angst):
   0.00000000  0.00000000  0.00000000
   5.71905554  0.00000000  0.00000000
   0.00000000  2.85952777  2.85952777
   5.71905554  2.85952777  2.85952777
   2.85952777  0.00000000  8.57858331
   8.57858331  0.00000000  8.57858331
   2.85952777  2.85952777  5.71905554
   8.57858331  2.85952777  5.71905554
   2.85952777  5.71905554  2.85952777
   8.57858331  5.71905554  2.85952777
   2.85952777  8.57858331  0.00000000
   8.57858331  8.57858331  0.00000000
   0.00000000  8.57858331  2.85952777
   5.71905554  8.57858331  2.85952777
   0.00000000  5.71905554  5.71905554
   5.71905554  5.71905554  5.71905554
   2.85952777  8.57858331  5.71905554
   8.57858331  8.57858331  5.71905554
   2.85952777  0.00000000  2.85952777
   8.57858331  0.00000000  2.85952777
   0.00000000  0.00000000  5.71905554
   5.71905554  0.00000000  5.71905554
   2.85952777  5.71905554  8.57858331
   8.57858331  5.71905554  8.57858331
   0.00000000  2.85952777  8.57858331
   5.71905554  2.85952777  8.57858331
   0.00000000  8.57858331  8.57858331
   5.71905554  8.57858331  8.57858331
   0.00000000  5.71905554  0.00000000
   5.71905554  5.71905554  0.00000000
   2.85952777  2.85952777  0.00000000
   8.57858331  2.85952777  0.00000000
   7.14881942  7.14881942  7.14881942
   1.42976388  7.14881942  7.14881942
   7.14881942 10.00834719 10.00834719
   1.42976388 10.00834719 10.00834719
  10.00834719  7.14881942  4.28929165
   4.28929165  7.14881942  4.28929165
  10.00834719 10.00834719  1.42976388
   4.28929165 10.00834719  1.42976388
  10.00834719  1.42976388 10.00834719
   4.28929165  1.42976388 10.00834719
  10.00834719  4.28929165  7.14881942
   4.28929165  4.28929165  7.14881942
   7.14881942  4.28929165 10.00834719
   1.42976388  4.28929165 10.00834719
   7.14881942  1.42976388  1.42976388
   1.42976388  1.42976388  1.42976388
  10.00834719  4.28929165  1.42976388
   4.28929165  4.28929165  1.42976388
  10.00834719  7.14881942 10.00834719
   4.28929165  7.14881942 10.00834719
   7.14881942  7.14881942  1.42976388
   1.42976388  7.14881942  1.42976388
  10.00834719  1.42976388  4.28929165
   4.28929165  1.42976388  4.28929165
   7.14881942 10.00834719  4.28929165
   1.42976388 10.00834719  4.28929165
   7.14881942  4.28929165  4.28929165
   1.42976388  4.28929165  4.28929165
   7.14881942  1.42976388  7.14881942
   1.42976388  1.42976388  7.14881942
  10.00834719 10.00834719  7.14881942
   4.28929165 10.00834719  7.14881942
 


--------------------------------------------------------------------------------------------------------


 k-point  1 :   0.0000 0.0000 0.0000  plane waves:   37993
 k-point  2 :   0.3333 0.0000 0.0000  plane waves:   37998
 k-point  3 :   0.3333 0.3333 0.0000  plane waves:   37998
 k-point  4 :   0.3333 0.3333 0.3333  plane waves:   38031

 maximum and minimum number of plane-waves per node :      9548     9461

 maximum number of plane-waves:     38031
 maximum index in each direction: 
   IXMAX=   20   IYMAX=   20   IZMAX=   20
   IXMIN=  -21   IYMIN=  -21   IZMIN=  -21

 WARNING: aliasing errors must be expected set NGX to  84 to avoid them
 WARNING: aliasing errors must be expected set NGY to  84 to avoid them
 WARNING: aliasing errors must be expected set NGZ to  84 to avoid them
 aliasing errors are usually negligible using standard VASP settings
 and one can safely disregard these warnings

 real space projection operators:
  total allocation   :      14229.00 KBytes
  max/ min on nodes  :       3708.00       3465.00


 parallel 3D FFT for wavefunctions:
    minimum data exchange during FFTs selected (reduces bandwidth)
 parallel 3D FFT for charge:
    minimum data exchange during FFTs selected (reduces bandwidth)


 total amount of memory used by VASP on root node    96841. kBytes
========================================================================

   base      :      30000. kBytes
   nonlr-proj:       6220. kBytes
   fftplans  :       4769. kBytes
   grid      :       7276. kBytes
   one-center:        248. kBytes
   wavefun   :      48328. kBytes
 
     INWAV:  cpu time    0.0000: real time    0.0000
 Broyden mixing: mesh for mixing (old mesh)
   NGX = 41   NGY = 41   NGZ = 41
  (NGX  =128   NGY  =128   NGZ  =128)
  gives a total of  68921 points

 initial charge density was supplied:
 charge density of overlapping atoms calculated
 number of electron     896.0000000 magnetization 
 keeping initial charge density in first step


--------------------------------------------------------------------------------------------------------


 Maximum index for non-local projection operator          419
 Maximum index for augmentation-charges          421 (set IRDMAX)


--------------------------------------------------------------------------------------------------------


 First call to EWALD:  gamma=   0.155
 Maximum number of real-space cells 3x 3x 3
 Maximum number of reciprocal cells 3x 3x 3

 FEWALD executed in parallel
    FEWALD:  cpu time    0.0040: real time    0.0040


----------------------------------------- Iteration    1(   1)  ---------------------------------------


    POTLOK:  cpu time    0.0210: real time    0.0237
    SETDIJ:  cpu time    0.0150: real time    0.0194
     EDDAV:  cpu time   17.2354: real time   17.3079
       DOS:  cpu time    0.0030: real time    0.0286
    --------------------------------------------
      LOOP:  cpu time   17.2764: real time   17.3854

 eigenvalue-minimisations  :  5082
 total energy-change (2. order) : 0.1583010E+05  (-0.2720961E+05)
 number of electron     896.0000000 magnetization 
 augmentation part      896.0000000 magnetization 

 Free energy of the ion-electron system (eV)
  ---------------------------------------------------
  alpha Z        PSCENC =      4975.08412916
  Ewald energy   TEWEN  =    -85373.25797477
  -Hartree energ DENC   =    -48439.29851441
  -exchange      EXHF   =         0.00000000
  -V(xc)+E(xc)   XCENC  =      4081.40337039
  PAW double counting   =    118064.89290689  -146701.77456948
  entropy T*S    EENTRO =        -0.00262505
  eigenvalues    EBANDS =      1072.30951241
  atomic energy  EATOM  =    168150.74136308
  Solvation  Ediel_sol  =         0.00000000
  ---------------------------------------------------
  free energy    TOTEN  =     15830.09759822 eV

  energy without entropy =    15830.10022327  energy(sigma->0) =    15830.09891074


--------------------------------------------------------------------------------------------------------




----------------------------------------- Iteration    1(   2)  ---------------------------------------


     EDDAV:  cpu time   19.6870: real time   19.6855
       DOS:  cpu time    0.0020: real time    0.0013
    --------------------------------------------
      LOOP:  cpu time   19.6910: real time   19.6956

 eigenvalue-minimisations  :  4480
 total energy-change (2. order) :-0.1192171E+05  (-0.1069084E+05)
 number of electron     896.0000000 magnetization 
 augmentation part      896.0000000 magnetization 

 Free energy of the ion-electron system (eV)
  ---------------------------------------------------
  alpha Z        PSCENC =      4975.08412916
  Ewald energy   TEWEN  =    -85373.25797477
  -Hartree energ DENC   =    -48439.29851441
  -exchange      EXHF   =         0.00000000
  -V(xc)+E(xc)   XCENC  =      4081.40337039
  PAW double counting   =    118064.89290689  -146701.77456948
  entropy T*S    EENTRO =        -0.00114274
  eigenvalues    EBANDS =    -10849.39943403
  atomic energy  EATOM  =    168150.74136308
  Solvation  Ediel_sol  =         0.00000000
  ---------------------------------------------------
  free energy    TOTEN  =      3908.39013408 eV

  energy without entropy =     3908.39127682  energy(sigma->0) =     3908.39070545


--------------------------------------------------------------------------------------------------------




----------------------------------------- Iteration    1(   3)  ---------------------------------------


     EDDAV:  cpu time   16.5635: real time   16.5639
       DOS:  cpu time    0.0010: real time    0.0013
    --------------------------------------------
      LOOP:  cpu time   16.5675: real time   16.5682

 eigenvalue-minimisations  :  4816
 total energy-change (2. order) :-0.3444328E+04  (-0.3296487E+04)
 number of electron     896.0000000 magnetization 
 augmentation part      896.0000000 magnetization 

 Free energy of the ion-electron system (eV)
  ---------------------------------------------------
  alpha Z        PSCENC =      4975.08412916
  Ewald energy   TEWEN  =    -85373.25797477
  -Hartree energ DENC   =    -48439.29851441
  -exchange      EXHF   =         0.00000000
  -V(xc)+E(xc)   XCENC  =      4081.40337039
  PAW double counting   =    118064.89290689  -146701.77456948
  entropy T*S    EENTRO =        -0.00133159
  eigenvalues    EBANDS =    -14293.72712795
  atomic energy  EATOM  =    168150.74136308
  Solvation  Ediel_sol  =         0.00000000
  ---------------------------------------------------
  free energy    TOTEN  =       464.06225132 eV

  energy without entropy =      464.06358291  energy(sigma->0) =      464.06291711


--------------------------------------------------------------------------------------------------------




----------------------------------------- Iteration    1(   4)  ---------------------------------------


     EDDAV:  cpu time   17.6643: real time   18.3841
       DOS:  cpu time    0.0000: real time    0.0003
    --------------------------------------------
      LOOP:  cpu time   17.6663: real time   18.3875

 eigenvalue-minimisations  :  5201
 total energy-change (2. order) :-0.6986274E+03  (-0.6336631E+03)
 number of electron     896.0000000 magnetization 
 augmentation part      896.0000000 magnetization 

 Free energy of the ion-electron system (eV)
  ---------------------------------------------------
  alpha Z        PSCENC =      4975.08412916
  Ewald energy   TEWEN  =    -85373.25797477
  -Hartree energ DENC   =    -48439.29851441
  -exchange      EXHF   =         0.00000000
  -V(xc)+E(xc)   XCENC  =      4081.40337039
  PAW double counting   =    118064.89290689  -146701.77456948
  entropy T*S    EENTRO =        -0.00000000
  eigenvalues    EBANDS =    -14992.35584159
  atomic energy  EATOM  =    168150.74136308
  Solvation  Ediel_sol  =         0.00000000
  ---------------------------------------------------
  free energy    TOTEN  =      -234.56513073 eV

  energy without entropy =     -234.56513073  energy(sigma->0) =     -234.56513073


--------------------------------------------------------------------------------------------------------




----------------------------------------- Iteration    1(   5)  ---------------------------------------


     EDDAV:  cpu time   17.1864: real time   17.1897
       DOS:  cpu time    0.0000: real time    0.0003
    CHARGE:  cpu time    0.5829: real time    0.5885
    MIXING:  cpu time    0.0050: real time    0.0364
    --------------------------------------------
      LOOP:  cpu time   17.7763: real time   17.8180

 eigenvalue-minimisations  :  5040
 total energy-change (2. order) :-0.7388811E+02  (-0.7123247E+02)
 number of electron     896.0002358 magnetization 
 augmentation part      542.5861494 magnetization 

 Broyden mixing:
  rms(total) = 0.22325E+01    rms(broyden)= 0.22324E+01
  rms(prec ) = 0.24583E+01
  weight for this iteration     100.00

 Free energy of the ion-electron system (eV)
  ---------------------------------------------------
  alpha Z        PSCENC =      4975.08412916
  Ewald energy   TEWEN  =    -85373.25797477
  -Hartree energ DENC   =    -48439.29851441
  -exchange      EXHF   =         0.00000000
  -V(xc)+E(xc)   XCENC  =      4081.40337039
  PAW double counting   =    118064.89290689  -146701.77456948
  entropy T*S    EENTRO =        -0.00000000
  eigenvalues    EBANDS =    -15066.24395002
  atomic energy  EATOM  =    168150.74136308
  Solvation  Ediel_sol  =         0.00000000
  ---------------------------------------------------
  free energy    TOTEN  =      -308.45323917 eV

  energy without entropy =     -308.45323917  energy(sigma->0) =     -308.45323917


--------------------------------------------------------------------------------------------------------




----------------------------------------- Iteration    1(   6)  ---------------------------------------


    POTLOK:  cpu time    0.0190: real time    0.0196
    SETDIJ:  cpu time    0.0100: real time    0.0106
     EDDAV:  cpu time   19.3101: real time   19.3149
       DOS:  cpu time    0.0000: real time    0.0004
    CHARGE:  cpu time    0.5589: real time    0.5591
    MIXING:  cpu time    0.0040: real time    0.0127
    --------------------------------------------
      LOOP:  cpu time   19.9050: real time   19.9204

 eigenvalue-minimisations  :  5838
 total energy-change (2. order) :-0.6569954E+00  (-0.5469764E+01)
 number of electron     896.0002354 magnetization 
 augmentation part      542.7121137 magnetization 

 Broyden mixing:
  rms(total) = 0.10042E+01    rms(broyden)= 0.10042E+01
  rms(prec ) = 0.11685E+01
  weight for this iteration     100.00

 eigenvalues of (default mixing * dielectric matrix)
  average eigenvalue GAMMA=   1.6782
  1.6782

 Free energy of the ion-electron system (eV)
  ---------------------------------------------------
  alpha Z        PSCENC =      4975.08412916
  Ewald energy   TEWEN  =    -85373.25797477
  -Hartree energ DENC   =    -48367.48053980
  -exchange      EXHF   =         0.00000000
  -V(xc)+E(xc)   XCENC  =      4075.00617494
  PAW double counting   =    126604.76225650  -155257.92838547
  entropy T*S    EENTRO =        -0.00000000
  eigenvalues    EBANDS =    -15116.03725824
  atomic energy  EATOM  =    168150.74136308
  Solvation  Ediel_sol  =         0.00000000
  ---------------------------------------------------
  free energy    TOTEN  =      -309.11023461 eV

  energy without entropy =     -309.11023461  energy(sigma->0) =     -309.11023461


--------------------------------------------------------------------------------------------------------




----------------------------------------- Iteration    1(   7)  ---------------------------------------


    POTLOK:  cpu time    0.0190: real time    0.0196
    SETDIJ:  cpu time    0.0110: real time    0.0103
     EDDAV:  cpu time   17.8723: real time   17.8719
       DOS:  cpu time    0.0010: real time    0.0008
    CHARGE:  cpu time    0.5679: real time    0.5673
    MIXING:  cpu time    0.0020: real time    0.0023
    --------------------------------------------
      LOOP:  cpu time   18.4752: real time   18.4757

 eigenvalue-minimisations  :  5292
 total energy-change (2. order) : 0.1425853E+01  (-0.7007086E+00)
 number of electron     896.0002357 magnetization 
 augmentation part      542.7500986 magnetization 

 Broyden mixing:
  rms(total) = 0.23764E+00    rms(broyden)= 0.23764E+00
  rms(prec ) = 0.27819E+00
  weight for this iteration     100.00

 eigenvalues of (default mixing * dielectric matrix)
  average eigenvalue GAMMA=   1.3904
  0.8588  1.9220

 Free energy of the ion-electron system (eV)
  ---------------------------------------------------
  alpha Z        PSCENC =      4975.08412916
  Ewald energy   TEWEN  =    -85373.25797477
  -Hartree energ DENC   =    -48442.28426365
  -exchange      EXHF   =         0.00000000
  -V(xc)+E(xc)   XCENC  =      4074.71699166
  PAW double counting   =    133578.24389624  -162329.43982360
  entropy T*S    EENTRO =        -0.00000001
  eigenvalues    EBANDS =    -14941.48869938
  atomic energy  EATOM  =    168150.74136308
  Solvation  Ediel_sol  =         0.00000000
  ---------------------------------------------------
  free energy    TOTEN  =      -307.68438128 eV

  energy without entropy =     -307.68438127  energy(sigma->0) =     -307.68438127


--------------------------------------------------------------------------------------------------------




----------------------------------------- Iteration    1(   8)  ---------------------------------------


    POTLOK:  cpu time    0.0180: real time    0.0195
    SETDIJ:  cpu time    0.0100: real time    0.0103
     EDDAV:  cpu time   17.5733: real time   17.5749
       DOS:  cpu time    0.0000: real time    0.0008
    CHARGE:  cpu time    0.5669: real time    0.5668
    MIXING:  cpu time    0.0030: real time    0.0024
    --------------------------------------------
      LOOP:  cpu time   18.1752: real time   18.1783

 eigenvalue-minimisations  :  5180
 total energy-change (2. order) : 0.1721049E-01  (-0.6605312E-01)
 number of electron     896.0002358 magnetization 
 augmentation part      542.7132015 magnetization 

 Broyden mixing:
  rms(total) = 0.14140E+00    rms(broyden)= 0.14140E+00
  rms(prec ) = 0.16390E+00
  weight for this iteration     100.00

 eigenvalues of (default mixing * dielectric matrix)
  average eigenvalue GAMMA=   1.6609
  2.5153  1.2337  1.2337

 Free energy of the ion-electron system (eV)
  ---------------------------------------------------
  alpha Z        PSCENC =      4975.08412916
  Ewald energy   TEWEN  =    -85373.25797477
  -Hartree energ DENC   =    -48438.26538340
  -exchange      EXHF   =         0.00000000
  -V(xc)+E(xc)   XCENC  =      4074.03059312
  PAW double counting   =    134924.10550057  -163680.15946733
  entropy T*S    EENTRO =        -0.00000002
  eigenvalues    EBANDS =    -14939.94593118
  atomic energy  EATOM  =    168150.74136308
  Solvation  Ediel_sol  =         0.00000000
  ---------------------------------------------------
  free energy    TOTEN  =      -307.66717079 eV

  energy without entropy =     -307.66717077  energy(sigma->0) =     -307.66717078


--------------------------------------------------------------------------------------------------------




----------------------------------------- Iteration    1(   9)  ---------------------------------------


    POTLOK:  cpu time    0.0200: real time    0.0195
    SETDIJ:  cpu time    0.0100: real time    0.0103
     EDDAV:  cpu time   19.0901: real time   19.0929
       DOS:  cpu time    0.0010: real time    0.0009
    CHARGE:  cpu time    0.5659: real time    0.5651
    MIXING:  cpu time    0.0030: real time    0.0025
    --------------------------------------------
      LOOP:  cpu time   19.6920: real time   19.6950

 eigenvalue-minimisations  :  5740
 total energy-change (2. order) : 0.1799209E-01  (-0.1039713E-01)
 number of electron     896.0002358 magnetization 
 augmentation part      542.7716495 magnetization 

 Broyden mixing:
  rms(total) = 0.51202E-01    rms(broyden)= 0.51201E-01
  rms(prec ) = 0.53576E-01
  weight for this iteration     100.00

 eigenvalues of (default mixing * dielectric matrix)
  average eigenvalue GAMMA=   1.5129
  2.4690  1.7509  1.0113  0.8206

 Free energy of the ion-electron system (eV)
  ---------------------------------------------------
  alpha Z        PSCENC =      4975.08412916
  Ewald energy   TEWEN  =    -85373.25797477
  -Hartree energ DENC   =    -48423.82283266
  -exchange      EXHF   =         0.00000000
  -V(xc)+E(xc)   XCENC  =      4072.95731691
  PAW double counting   =    136302.15115811  -165054.45695022
  entropy T*S    EENTRO =        -0.00000001
  eigenvalues    EBANDS =    -14957.04538829
  atomic energy  EATOM  =    168150.74136308
  Solvation  Ediel_sol  =         0.00000000
  ---------------------------------------------------
  free energy    TOTEN  =      -307.64917870 eV

  energy without entropy =     -307.64917869  energy(sigma->0) =     -307.64917870


--------------------------------------------------------------------------------------------------------




----------------------------------------- Iteration    1(  10)  ---------------------------------------


    POTLOK:  cpu time    0.0180: real time    0.0194
    SETDIJ:  cpu time    0.0110: real time    0.0104
     EDDAV:  cpu time   17.6703: real time   17.6733
       DOS:  cpu time    0.0010: real time    0.0008
    CHARGE:  cpu time    0.5659: real time    0.5662
    MIXING:  cpu time    0.0030: real time    0.0027
    --------------------------------------------
      LOOP:  cpu time   18.2712: real time   18.2765

 eigenvalue-minimisations  :  5208
 total energy-change (2. order) :-0.6875858E-03  (-0.1606898E-02)
 number of electron     896.0002357 magnetization 
 augmentation part      542.7422672 magnetization 

 Broyden mixing:
  rms(total) = 0.24024E-01    rms(broyden)= 0.24024E-01
  rms(prec ) = 0.25698E-01
  weight for this iteration     100.00

 eigenvalues of (default mixing * dielectric matrix)
  average eigenvalue GAMMA=   1.6726
  2.4802  2.4802  1.2018  1.2018  0.9989

 Free energy of the ion-electron system (eV)
  ---------------------------------------------------
  alpha Z        PSCENC =      4975.08412916
  Ewald energy   TEWEN  =    -85373.25797477
  -Hartree energ DENC   =    -48423.34404104
  -exchange      EXHF   =         0.00000000
  -V(xc)+E(xc)   XCENC  =      4073.01152130
  PAW double counting   =    136080.62208861  -164833.04387436
  entropy T*S    EENTRO =        -0.00000000
  eigenvalues    EBANDS =    -14957.46307827
  atomic energy  EATOM  =    168150.74136308
  Solvation  Ediel_sol  =         0.00000000
  ---------------------------------------------------
  free energy    TOTEN  =      -307.64986629 eV

  energy without entropy =     -307.64986629  energy(sigma->0) =     -307.64986629


--------------------------------------------------------------------------------------------------------




----------------------------------------- Iteration    1(  11)  ---------------------------------------


    POTLOK:  cpu time    0.0190: real time    0.0195
    SETDIJ:  cpu time    0.0110: real time    0.0106
     EDDAV:  cpu time   20.5159: real time   20.5165
       DOS:  cpu time    0.0010: real time    0.0008
    CHARGE:  cpu time    0.5659: real time    0.5654
    MIXING:  cpu time    0.0030: real time    0.0029
    --------------------------------------------
      LOOP:  cpu time   21.1198: real time   21.1197

 eigenvalue-minimisations  :  6258
 total energy-change (2. order) : 0.6436397E-04  (-0.2510421E-03)
 number of electron     896.0002357 magnetization 
 augmentation part      542.7380010 magnetization 

 Broyden mixing:
  rms(total) = 0.42015E-02    rms(broyden)= 0.42014E-02
  rms(prec ) = 0.45514E-02
  weight for this iteration     100.00

 eigenvalues of (default mixing * dielectric matrix)
  average eigenvalue GAMMA=   1.5751
  2.6427  2.2761  1.4580  0.9630  0.9630  1.1477

 Free energy of the ion-electron system (eV)
  ---------------------------------------------------
  alpha Z        PSCENC =      4975.08412916
  Ewald energy   TEWEN  =    -85373.25797477
  -Hartree energ DENC   =    -48427.71573184
  -exchange      EXHF   =         0.00000000
  -V(xc)+E(xc)   XCENC  =      4073.20312971
  PAW double counting   =    135925.14478246  -164679.90275062
  entropy T*S    EENTRO =        -0.00000000
  eigenvalues    EBANDS =    -14950.94674909
  atomic energy  EATOM  =    168150.74136308
  Solvation  Ediel_sol  =         0.00000000
  ---------------------------------------------------
  free energy    TOTEN  =      -307.64980192 eV

  energy without entropy =     -307.64980192  energy(sigma->0) =     -307.64980192


--------------------------------------------------------------------------------------------------------




----------------------------------------- Iteration    1(  12)  ---------------------------------------


    POTLOK:  cpu time    0.0180: real time    0.0194
    SETDIJ:  cpu time    0.0110: real time    0.0107
     EDDAV:  cpu time   16.6795: real time   16.6876
       DOS:  cpu time    0.0010: real time    0.0008
    CHARGE:  cpu time    0.5669: real time    0.5670
    MIXING:  cpu time    0.0030: real time    0.0030
    --------------------------------------------
      LOOP:  cpu time   17.2814: real time   17.2919

 eigenvalue-minimisations  :  4844
 total energy-change (2. order) : 0.3915542E-05  (-0.3303975E-04)
 number of electron     896.0002357 magnetization 
 augmentation part      542.7393986 magnetization 

 Broyden mixing:
  rms(total) = 0.16395E-02    rms(broyden)= 0.16395E-02
  rms(prec ) = 0.17406E-02
  weight for this iteration     100.00

 eigenvalues of (default mixing * dielectric matrix)
  average eigenvalue GAMMA=   1.5757
  2.6135  2.2907  1.4822  1.4822  1.1209  1.1209  0.9197

 Free energy of the ion-electron system (eV)
  ---------------------------------------------------
  alpha Z        PSCENC =      4975.08412916
  Ewald energy   TEWEN  =    -85373.25797477
  -Hartree energ DENC   =    -48427.88939555
  -exchange      EXHF   =         0.00000000
  -V(xc)+E(xc)   XCENC  =      4073.20060156
  PAW double counting   =    135948.76323064  -164703.40796451
  entropy T*S    EENTRO =        -0.00000000
  eigenvalues    EBANDS =    -14950.88378762
  atomic energy  EATOM  =    168150.74136308
  Solvation  Ediel_sol  =         0.00000000
  ---------------------------------------------------
  free energy    TOTEN  =      -307.64979801 eV

  energy without entropy =     -307.64979801  energy(sigma->0) =     -307.64979801


--------------------------------------------------------------------------------------------------------




----------------------------------------- Iteration    1(  13)  ---------------------------------------


    POTLOK:  cpu time    0.0190: real time    0.0195
    SETDIJ:  cpu time    0.0110: real time    0.0106
     EDDAV:  cpu time   21.0228: real time   21.0280
       DOS:  cpu time    0.0010: real time    0.0007
    CHARGE:  cpu time    0.5629: real time    0.5624
    MIXING:  cpu time    0.0030: real time    0.0031
    --------------------------------------------
      LOOP:  cpu time   21.6227: real time   21.6278

 eigenvalue-minimisations  :  6342
 total energy-change (2. order) :-0.3458030E-05  (-0.3983344E-05)
 number of electron     896.0002357 magnetization 
 augmentation part      542.7395570 magnetization 

 Broyden mixing:
  rms(total) = 0.64932E-03    rms(broyden)= 0.64931E-03
  rms(prec ) = 0.70595E-03
  weight for this iteration     100.00

 eigenvalues of (default mixing * dielectric matrix)
  average eigenvalue GAMMA=   1.6833
  2.8289  2.8289  1.8460  1.6765  1.2781  0.9582  1.0249  1.0249

 Free energy of the ion-electron system (eV)
  ---------------------------------------------------
  alpha Z        PSCENC =      4975.08412916
  Ewald energy   TEWEN  =    -85373.25797477
  -Hartree energ DENC   =    -48428.08918885
  -exchange      EXHF   =         0.00000000
  -V(xc)+E(xc)   XCENC  =      4073.20718017
  PAW double counting   =    135945.20707083  -164699.73338186
  entropy T*S    EENTRO =        -0.00000000
  eigenvalues    EBANDS =    -14950.80899921
  atomic energy  EATOM  =    168150.74136308
  Solvation  Ediel_sol  =         0.00000000
  ---------------------------------------------------
  free energy    TOTEN  =      -307.64980147 eV

  energy without entropy =     -307.64980146  energy(sigma->0) =     -307.64980146


--------------------------------------------------------------------------------------------------------




----------------------------------------- Iteration    1(  14)  ---------------------------------------


    POTLOK:  cpu time    0.0190: real time    0.0194
    SETDIJ:  cpu time    0.0110: real time    0.0106
     EDDAV:  cpu time   12.1202: real time   12.1232
       DOS:  cpu time    0.0010: real time    0.0008
    CHARGE:  cpu time    0.5599: real time    0.5589
    MIXING:  cpu time    0.0030: real time    0.0033
    --------------------------------------------
      LOOP:  cpu time   12.7161: real time   12.7195

 eigenvalue-minimisations  :  3108
 total energy-change (2. order) :-0.1108390E-05  (-0.1999950E-06)
 number of electron     896.0002357 magnetization 
 augmentation part      542.7399774 magnetization 

 Broyden mixing:
  rms(total) = 0.25346E-03    rms(broyden)= 0.25346E-03
  rms(prec ) = 0.27295E-03
  weight for this iteration     100.00

 eigenvalues of (default mixing * dielectric matrix)
  average eigenvalue GAMMA=   1.5881
  2.8718  2.4769  1.9763  1.4781  1.4781  0.9350  1.0245  1.0259  1.0259

 Free energy of the ion-electron system (eV)
  ---------------------------------------------------
  alpha Z        PSCENC =      4975.08412916
  Ewald energy   TEWEN  =    -85373.25797477
  -Hartree energ DENC   =    -48428.13813041
  -exchange      EXHF   =         0.00000000
  -V(xc)+E(xc)   XCENC  =      4073.20876480
  PAW double counting   =    135940.69793252  -164695.10960139
  entropy T*S    EENTRO =        -0.00000000
  eigenvalues    EBANDS =    -14950.87628555
  atomic energy  EATOM  =    168150.74136308
  Solvation  Ediel_sol  =         0.00000000
  ---------------------------------------------------
  free energy    TOTEN  =      -307.64980257 eV

  energy without entropy =     -307.64980257  energy(sigma->0) =     -307.64980257


--------------------------------------------------------------------------------------------------------




----------------------------------------- Iteration    1(  15)  ---------------------------------------


    POTLOK:  cpu time    0.0180: real time    0.0195
    SETDIJ:  cpu time    0.0100: real time    0.0104
     EDDAV:  cpu time   11.2313: real time   11.2351
       DOS:  cpu time    0.0010: real time    0.0007
    --------------------------------------------
      LOOP:  cpu time   11.2643: real time   11.2693

 eigenvalue-minimisations  :  2758
 total energy-change (2. order) : 0.4676986E-07  (-0.2726008E-07)
 number of electron     896.0002357 magnetization 
 augmentation part      542.7399774 magnetization 

 Free energy of the ion-electron system (eV)
  ---------------------------------------------------
  alpha Z        PSCENC =      4975.08412916
  Ewald energy   TEWEN  =    -85373.25797477
  -Hartree energ DENC   =    -48428.13949071
  -exchange      EXHF   =         0.00000000
  -V(xc)+E(xc)   XCENC  =      4073.20818309
  PAW double counting   =    135943.10195659  -164697.54494919
  entropy T*S    EENTRO =        -0.00000000
  eigenvalues    EBANDS =    -14950.84301976
  atomic energy  EATOM  =    168150.74136308
  Solvation  Ediel_sol  =         0.00000000
  ---------------------------------------------------
  free energy    TOTEN  =      -307.64980253 eV

  energy without entropy =     -307.64980252  energy(sigma->0) =     -307.64980253


--------------------------------------------------------------------------------------------------------




 average (electrostatic) potential at core
  the test charge radii are     1.0314  0.9962
  (the norm of the test charge is              1.0000)
       1 -68.5788       2 -68.5788       3 -68.5788       4 -68.5788       5 -68.5788
       6 -68.5788       7 -68.5788       8 -68.5788       9 -68.5788      10 -68.5788
      11 -68.5788      12 -68.5788      13 -68.5788      14 -68.5788      15 -68.5788
      16 -68.5788      17 -68.5788      18 -68.5788      19 -68.5788      20 -68.5788
      21 -68.5788      22 -68.5788      23 -68.5788      24 -68.5788      25 -68.5788
      26 -68.5788      27 -68.5788      28 -68.5788      29 -68.5788      30 -68.5788
      31 -68.5788      32 -68.5788      33 -39.9897      34 -39.9897      35 -39.9897
      36 -39.9897      37 -39.9897      38 -39.9897      39 -39.9897      40 -39.9897
      41 -39.9897      42 -39.9897      43 -39.9897      44 -39.9897      45 -39.9897
      46 -39.9897      47 -39.9897      48 -39.9897      49 -39.9897      50 -39.9897
      51 -39.9897      52 -39.9897      53 -39.9897      54 -39.9897      55 -39.9897
      56 -39.9897      57 -39.9897      58 -39.9897      59 -39.9897      60 -39.9897
      61 -39.9897      62 -39.9897      63 -39.9897      64 -39.9897
 
 
 
 E-fermi :   2.7260     XC(G=0): -10.1419     alpha+bet : -8.6673


 k-point     1 :       0.0000    0.0000    0.0000
  band No.  band energies     occupation 
      1     -32.5694      2.00000
      2     -32.5694      2.00000
      3     -32.5694      2.00000
      4     -32.5690      2.00000
      5     -32.5690      2.00000
      6     -32.5690      2.00000
      7     -32.5690      2.00000
      8     -32.5690      2.00000
      9     -32.5690      2.00000
     10     -32.5686      2.00000
     11     -32.5686      2.00000
     12     -32.5686      2.00000
     13     -32.5685      2.00000
     14     -32.5685      2.00000
     15     -32.5685      2.00000
     16     -32.5685      2.00000
     17     -32.5685      2.00000
     18     -32.5685      2.00000
     19     -32.5685      2.00000
     20     -32.5685      2.00000
     21     -32.5685      2.00000
     22     -32.5685      2.00000
     23     -32.5684      2.00000
     24     -32.5684      2.00000
     25     -32.5684      2.00000
     26     -32.5684      2.00000
     27     -32.5684      2.00000
     28     -32.5684      2.00000
     29     -32.5684      2.00000
     30     -32.5684      2.00000
     31     -32.5684      2.00000
     32     -32.5684      2.00000
     33     -32.5684      2.00000
     34     -32.5684      2.00000
     35     -32.5680      2.00000
     36     -32.5680      2.00000
     37     -32.5680      2.00000
     38     -32.5680      2.00000
     39     -32.5680      2.00000
     40     -32.5680      2.00000
     41     -32.5680      2.00000
     42     -32.5680      2.00000
     43     -32.5680      2.00000
     44     -32.5680      2.00000
     45     -32.5680      2.00000
     46     -32.5680      2.00000
     47     -32.5680      2.00000
     48     -32.5680      2.00000
     49     -32.5680      2.00000
     50     -32.5680      2.00000
     51     -32.5680      2.00000
     52     -32.5680      2.00000
     53     -32.5679      2.00000
     54     -32.5679      2.00000
     55     -32.5679      2.00000
     56     -32.5679      2.00000
     57     -32.5679      2.00000
     58     -32.5679      2.00000
     59     -32.5679      2.00000
     60     -32.5679      2.00000
     61     -32.5679      2.00000
     62     -32.5679      2.00000
     63     -32.5679      2.00000
     64     -32.5679      2.00000
     65     -32.5679      2.00000
     66     -32.5679      2.00000
     67     -32.5679      2.00000
     68     -32.5679      2.00000
     69     -32.5679      2.00000
     70     -32.5679      2.00000
     71     -32.5679      2.00000
     72     -32.5679      2.00000
     73     -32.5679      2.00000
     74     -32.5679      2.00000
     75     -32.5679      2.00000
     76     -32.5679      2.00000
     77     -32.5679      2.00000
     78     -32.5679      2.00000
     79     -32.5679      2.00000
     80     -32.5679      2.00000
     81     -32.5679      2.00000
     82     -32.5679      2.00000
     83     -32.5679      2.00000
     84     -32.5679      2.00000
     85     -32.5671      2.00000
     86     -32.5671      2.00000
     87     -32.5671      2.00000
     88     -32.5671      2.00000
     89     -32.5671      2.00000
     90     -32.5671      2.00000
     91     -32.5671      2.00000
     92     -32.5671      2.00000
     93     -32.5671      2.00000
     94     -32.5671      2.00000
     95     -32.5671      2.00000
     96     -32.5671      2.00000
     97     -32.5597      2.00000
     98     -32.5597      2.00000
     99     -32.5597      2.00000
    100     -32.5595      2.00000
    101     -32.5595      2.00000
    102     -32.5595      2.00000
    103     -32.5595      2.00000
    104     -32.5595      2.00000
    105     -32.5595      2.00000
    106     -32.5594      2.00000
    107     -32.5594      2.00000
    108     -32.5594      2.00000
    109     -32.5594      2.00000
    110     -32.5594      2.00000
    111     -32.5594      2.00000
    112     -32.5593      2.00000
    113     -32.5593      2.00000
    114     -32.5591      2.00000
    115     -32.5591      2.00000
    116     -32.5591      2.00000
    117     -32.5591      2.00000
    118     -32.5591      2.00000
    119     -32.5591      2.00000
    120     -32.5591      2.00000
    121     -32.5591      2.00000
    122     -32.5591      2.00000
    123     -32.5591      2.00000
    124     -32.5591      2.00000
    125     -32.5591      2.00000
    126     -32.5591      2.00000
    127     -32.5591      2.00000
    128     -32.5591      2.00000
    129     -32.5591      2.00000
    130     -32.5591      2.00000
    131     -32.5591      2.00000
    132     -32.5591      2.00000
    133     -32.5591      2.00000
    134     -32.5591      2.00000
    135     -32.5591      2.00000
    136     -32.5591      2.00000
    137     -32.5591      2.00000
    138     -32.5591      2.00000
    139     -32.5591      2.00000
    140     -32.5591      2.00000
    141     -32.5591      2.00000
    142     -32.5591      2.00000
    143     -32.5591      2.00000
    144     -32.5591      2.00000
    145     -32.5591      2.00000
    146     -32.5589      2.00000
    147     -32.5589      2.00000
    148     -32.5589      2.00000
    149     -32.5589      2.00000
    150     -32.5589      2.00000
    151     -32.5589      2.00000
    152     -32.5588      2.00000
    153     -32.5588      2.00000
    154     -32.5588      2.00000
    155     -32.5588      2.00000
    156     -32.5588      2.00000
    157     -32.5588      2.00000
    158     -32.5585      2.00000
    159     -32.5585      2.00000
    160     -32.5585      2.00000
    161     -12.2689      2.00000
    162     -12.2689      2.00000
    163     -12.2689      2.00000
    164     -12.2571      2.00000
    165     -12.2571      2.00000
    166     -12.2571      2.00000
    167     -12.2571      2.00000
    168     -12.2571      2.00000
    169     -12.2571      2.00000
    170     -12.2396      2.00000
    171     -12.2396      2.00000
    172     -12.2396      2.00000
    173     -12.2396      2.00000
    174     -12.2374      2.00000
    175     -12.2374      2.00000
    176     -12.2374      2.00000
    177     -12.2374      2.00000
    178     -12.2374      2.00000
    179     -12.2374      2.00000
    180     -12.2374      2.00000
    181     -12.2374      2.00000
    182     -12.2374      2.00000
    183     -12.2374      2.00000
    184     -12.2374      2.00000
    185     -12.2374      2.00000
    186     -12.2265      2.00000
    187     -12.2265      2.00000
    188     -12.2265      2.00000
    189     -12.2265      2.00000
    190     -12.2265      2.00000
    191     -12.2265      2.00000
    192     -12.1727      2.00000
    193     -12.1727      2.00000
    194     -12.1727      2.00000
    195     -12.1555      2.00000
    196     -12.1555      2.00000
    197     -12.1555      2.00000
    198     -12.1555      2.00000
    199     -12.1555      2.00000
    200     -12.1555      2.00000
    201     -12.1555      2.00000
    202     -12.1555      2.00000
    203     -12.1521      2.00000
    204     -12.1521      2.00000
    205     -12.1521      2.00000
    206     -12.1521      2.00000
    207     -12.1521      2.00000
    208     -12.1521      2.00000
    209     -12.1521      2.00000
    210     -12.1521      2.00000
    211     -12.1521      2.00000
    212     -12.1521      2.00000
    213     -12.1521      2.00000
    214     -12.1521      2.00000
    215     -12.1515      2.00000
    216     -12.1515      2.00000
    217     -12.1515      2.00000
    218     -12.1515      2.00000
    219     -12.1515      2.00000
    220     -12.1515      2.00000
    221     -12.1515      2.00000
    222     -12.1515      2.00000
    223     -12.1515      2.00000
    224     -12.1515      2.00000
    225     -12.1515      2.00000
    226     -12.1515      2.00000
    227     -12.1505      2.00000
    228     -12.1505      2.00000
    229     -12.1505      2.00000
    230     -12.1505      2.00000
    231     -12.1505      2.00000
    232     -12.1505      2.00000
    233     -12.1505      2.00000
    234     -12.1505      2.00000
    235     -12.1505      2.00000
    236     -12.1505      2.00000
    237     -12.1505      2.00000
    238     -12.1505      2.00000
    239     -12.1454      2.00000
    240     -12.1454      2.00000
    241     -12.1454      2.00000
    242     -12.1454      2.00000
    243     -12.1454      2.00000
    244     -12.1454      2.00000
    245     -12.1335      2.00000
    246     -12.1335      2.00000
    247     -12.1335      2.00000
    248     -12.1335      2.00000
    249     -12.1335      2.00000
    250     -12.1335      2.00000
    251     -12.1294      2.00000
    252     -12.1294      2.00000
    253     -12.1294      2.00000
    254     -12.1294      2.00000
    255     -12.1294      2.00000
    256     -12.1294      2.00000
    257     -12.1246      2.00000
    258     -12.1246      2.00000
    259     -12.1246      2.00000
    260     -12.1125      2.00000
    261     -12.1125      2.00000
    262     -12.1125      2.00000
    263     -12.1125      2.00000
    264     -12.1125      2.00000
    265     -12.1125      2.00000
    266     -12.1120      2.00000
    267     -12.1120      2.00000
    268     -12.1120      2.00000
    269     -12.1120      2.00000
    270     -12.1120      2.00000
    271     -12.1120      2.00000
    272     -12.1043      2.00000
    273     -12.1043      2.00000
    274     -12.1043      2.00000
    275     -12.1043      2.00000
    276     -12.1043      2.00000
    277     -12.1043      2.00000
    278     -12.1043      2.00000
    279     -12.1043      2.00000
    280     -12.1043      2.00000
    281     -12.1043      2.00000
    282     -12.1043      2.00000
    283     -12.1043      2.00000
    284     -12.1025      2.00000
    285     -12.1025      2.00000
    286     -12.1024      2.00000
    287     -12.1024      2.00000
    288     -12.1024      2.00000
    289     -12.1024      2.00000
    290     -12.1024      2.00000
    291     -12.1024      2.00000
    292     -12.1024      2.00000
    293     -12.1024      2.00000
    294     -12.1024      2.00000
    295     -12.1024      2.00000
    296     -12.1024      2.00000
    297     -12.1024      2.00000
    298     -12.0994      2.00000
    299     -12.0994      2.00000
    300     -12.0994      2.00000
    301     -12.0994      2.00000
    302     -12.0994      2.00000
    303     -12.0994      2.00000
    304     -12.0994      2.00000
    305     -12.0994      2.00000
    306     -12.0993      2.00000
    307     -12.0993      2.00000
    308     -12.0993      2.00000
    309     -12.0993      2.00000
    310     -12.0993      2.00000
    311     -12.0993      2.00000
    312     -12.0972      2.00000
    313     -12.0972      2.00000
    314     -12.0972      2.00000
    315     -12.0972      2.00000
    316     -12.0972      2.00000
    317     -12.0972      2.00000
    318     -12.0918      2.00000
    319     -12.0918      2.00000
    320     -12.0918      2.00000
    321      -9.8342      2.00000
    322      -8.9548      2.00000
    323      -8.9548      2.00000
    324      -8.9548      2.00000
    325      -8.9548      2.00000
    326      -8.9548      2.00000
    327      -8.9548      2.00000
    328      -8.2874      2.00000
    329      -8.2874      2.00000
    330      -8.2874      2.00000
    331      -8.2874      2.00000
    332      -8.2874      2.00000
    333      -8.2874      2.00000
    334      -8.2874      2.00000
    335      -8.2874      2.00000
    336      -8.2874      2.00000
    337      -8.2874      2.00000
    338      -8.2874      2.00000
    339      -8.2874      2.00000
    340      -8.1775      2.00000
    341      -8.1775      2.00000
    342      -8.1775      2.00000
    343      -8.1775      2.00000
    344      -7.4851      2.00000
    345      -7.4851      2.00000
    346      -7.4851      2.00000
    347      -7.4351      2.00000
    348      -7.4351      2.00000
    349      -7.4351      2.00000
    350      -7.4351      2.00000
    351      -7.4351      2.00000
    352      -7.4351      2.00000
    353      -4.0179      2.00000
    354      -4.0179      2.00000
    355      -4.0179      2.00000
    356      -3.8445      2.00000
    357      -3.8445      2.00000
    358      -3.8445      2.00000
    359      -3.8445      2.00000
    360      -3.8445      2.00000
    361      -3.8445      2.00000
    362      -3.8129      2.00000
    363      -3.8129      2.00000
    364      -3.8129      2.00000
    365      -3.8129      2.00000
    366      -2.9038      2.00000
    367      -2.9038      2.00000
    368      -2.9038      2.00000
    369      -2.9038      2.00000
    370      -2.9038      2.00000
    371      -2.9038      2.00000
    372      -2.9038      2.00000
    373      -2.9038      2.00000
    374      -2.9038      2.00000
    375      -2.9038      2.00000
    376      -2.9038      2.00000
    377      -2.9038      2.00000
    378      -1.4421      2.00000
    379      -1.4421      2.00000
    380      -1.4421      2.00000
    381      -1.4421      2.00000
    382      -1.4421      2.00000
    383      -1.4421      2.00000
    384      -0.7094      2.00000
    385      -0.7094      2.00000
    386      -0.7094      2.00000
    387      -0.7094      2.00000
    388      -0.7094      2.00000
    389      -0.7094      2.00000
    390      -0.5528      2.00000
    391      -0.5528      2.00000
    392      -0.5528      2.00000
    393      -0.5528      2.00000
    394      -0.5528      2.00000
    395      -0.5528      2.00000
    396      -0.5528      2.00000
    397      -0.5528      2.00000
    398      -0.5528      2.00000
    399      -0.5528      2.00000
    400      -0.5528      2.00000
    401      -0.5528      2.00000
    402      -0.5193      2.00000
    403      -0.5193      2.00000
    404      -0.5193      2.00000
    405      -0.5193      2.00000
    406      -0.5193      2.00000
    407      -0.5193      2.00000
    408       0.1228      2.00000
    409       0.1228      2.00000
    410       0.1228      2.00000
    411       0.1228      2.00000
    412       0.1228      2.00000
    413       0.1228      2.00000
    414       1.0734      2.00000
    415       1.0734      2.00000
    416       1.0734      2.00000
    417       1.0734      2.00000
    418       1.0734      2.00000
    419       1.0734      2.00000
    420       1.0734      2.00000
    421       1.0734      2.00000
    422       1.0734      2.00000
    423       1.0734      2.00000
    424       1.0734      2.00000
    425       1.0734      2.00000
    426       1.5223      2.00000
    427       1.5223      2.00000
    428       1.5223      2.00000
    429       1.5223      2.00000
    430       1.5223      2.00000
    431       1.5223      2.00000
    432       1.5223      2.00000
    433       1.5223      2.00000
    434       1.5223      2.00000
    435       1.5223      2.00000
    436       1.5223      2.00000
    437       1.5223      2.00000
    438       1.5967      2.00000
    439       1.5967      2.00000
    440       1.5967      2.00000
    441       1.5967      2.00000
    442       1.5967      2.00000
    443       1.5967      2.00000
    444       1.5967      2.00000
    445       1.5967      2.00000
    446       2.6898      2.00000
    447       2.6898      2.00000
    448       2.6898      2.00000
    449       2.7608      0.00000
    450       3.4605      0.00000
    451       3.4605      0.00000
    452       3.4605      0.00000
    453       3.4605      0.00000
    454       4.1004      0.00000
    455       4.1004      0.00000
    456       4.1004      0.00000
    457       4.2624      0.00000
    458       4.2624      0.00000
    459       4.2624      0.00000
    460       4.5948      0.00000
    461       4.5948      0.00000
    462       4.5948      0.00000
    463       4.5948      0.00000
    464       4.5948      0.00000
    465       4.5948      0.00000
    466       5.2395      0.00000
    467       5.2395      0.00000
[...]
  0.000  -0.000   0.000   0.000   0.008  -0.000   0.000   0.000  -0.000   0.011   0.000  -0.000  -0.000   0.000   0.000  -0.000
 -0.000  -0.000  -0.000  -0.000   0.000   0.000   0.000   0.000   0.000  -0.000   1.494   0.022  -0.000  -0.000   0.000   0.000
  0.000   0.000   0.000  -0.000  -0.000  -0.000  -0.000  -0.000  -0.000  -0.000   0.022   0.001   0.000   0.000   0.000  -0.000
  0.000  -0.000  -0.000   0.016   0.000   0.000   0.000  -0.000   0.138  -0.000  -0.000   0.000   0.886   0.000   0.000   0.013
  0.016  -0.000  -0.000  -0.000  -0.000   0.138  -0.000   0.000  -0.000  -0.000  -0.000   0.000   0.000   0.886  -0.000   0.000
  0.000   0.016  -0.000  -0.000   0.000   0.000   0.138  -0.000   0.000   0.000   0.000  -0.000   0.000  -0.000   0.886  -0.000
 -0.000   0.000  -0.000   0.001  -0.000  -0.000  -0.000  -0.000   0.002  -0.000   0.000  -0.000   0.013  -0.000  -0.000   0.000
  0.001   0.000   0.000   0.000   0.000   0.002  -0.000   0.000   0.000  -0.000   0.000   0.000   0.000   0.013  -0.000   0.000
 -0.000   0.001  -0.000   0.000  -0.000  -0.000   0.002   0.000  -0.000   0.000   0.000   0.000  -0.000   0.000   0.013   0.000


------------------------ aborting loop because EDIFF is reached ----------------------------------------


    CHARGE:  cpu time    0.6439: real time    0.6445
    FORLOC:  cpu time    0.0270: real time    0.0323
    FORNL :  cpu time    2.2917: real time    2.3016
    STRESS:  cpu time    6.8210: real time    6.8408
    FORCOR:  cpu time    0.0440: real time    0.0479
    FORHAR:  cpu time    0.0400: real time    0.0448
    MIXING:  cpu time    0.0040: real time    0.0037
    OFIELD:  cpu time    0.0000: real time    0.0079

  FORCE on cell =-STRESS in cart. coord.  units (eV):
  Direction    XX          YY          ZZ          XY          YZ          ZX
  --------------------------------------------------------------------------------------
  Alpha Z  4975.08413  4975.08413  4975.08413
  Ewald  -28457.93080-28457.93080-28457.93080    -0.00000    -0.00000     0.00000
  Hartree 16142.71675 16142.71675 16142.71675    -0.00000    -0.00000    -0.00000
  E(xc)   -5218.67035 -5218.67035 -5218.67035     0.00000     0.00000    -0.00000
  Local    4612.62108  4612.62108  4612.62108     0.00000     0.00000     0.00000
  n-local   621.69389   625.06393   622.18688    -3.67360    -1.50594    -1.50594
  augment  2950.21980  2950.21980  2950.21980     0.00000     0.00000     0.00000
  Kinetic  4334.77516  4343.01972  4334.76798    -8.59421    -3.73146    -3.73146
  Fock        0.00000     0.00000     0.00000     0.00000     0.00000     0.00000
  -------------------------------------------------------------------------------------
  Total     -35.45688   -35.45688   -35.45688     0.00000    -0.00000    -0.00000
  in kB     -37.96192   -37.96192   -37.96192     0.00000    -0.00000    -0.00000
  external pressure =      -37.96 kB  Pullay stress =        0.00 kB


 VOLUME and BASIS-vectors are now :
 -----------------------------------------------------------------------------
  energy-cutoff  :      500.00
  volume of cell :     1496.45
      direct lattice vectors                 reciprocal lattice vectors
    11.438111079  0.000000000  0.000000000     0.087427023  0.000000000  0.000000000
     0.000000000 11.438111079  0.000000000     0.000000000  0.087427023  0.000000000
     0.000000000  0.000000000 11.438111079     0.000000000  0.000000000  0.087427023

  length of vectors
    11.438111079 11.438111079 11.438111079     0.087427023  0.087427023  0.087427023


 FORCES acting on ions
    electron-ion (+dipol)            ewald-force                    non-local-force                 convergence-correction
 -----------------------------------------------------------------------------------------------
   -.104E-11 0.205E-13 0.753E-13   -.163E-12 -.941E-13 0.320E-13   -.158E-16 -.791E-17 -.602E-17   -.123E-11 0.303E-13 -.765E-12
   -.230E-12 -.414E-13 0.252E-10   -.142E-12 -.924E-13 0.853E-13   -.466E-17 -.838E-17 -.143E-16   0.102E-11 -.906E-13 -.176E-11
   -.104E-11 0.547E-12 0.586E-12   -.146E-12 -.112E-12 -.140E-12   -.234E-16 -.247E-17 0.707E-17   -.462E-12 -.505E-12 -.305E-11
   -.229E-12 -.372E-11 0.909E-11   -.167E-12 -.163E-12 -.249E-13   -.224E-16 -.117E-17 -.301E-17   0.445E-12 0.622E-12 -.190E-11
   -.799E-12 0.526E-14 -.530E-11   -.114E-12 -.568E-13 0.568E-13   -.219E-16 -.678E-18 -.193E-16   0.145E-12 -.197E-12 0.228E-11
   0.412E-12 -.407E-13 0.480E-11   -.853E-13 -.107E-12 0.639E-13   0.217E-18 -.118E-16 0.236E-17   -.818E-13 0.282E-12 0.386E-11
   -.797E-12 -.236E-11 -.183E-12   -.142E-12 -.568E-13 0.568E-13   -.123E-16 -.976E-17 -.607E-17   0.447E-12 0.275E-12 0.133E-11
   0.337E-12 -.126E-10 0.106E-10   -.817E-13 -.117E-12 0.515E-13   -.320E-16 -.117E-17 0.461E-18   -.547E-12 0.301E-13 0.895E-12
   -.875E-12 0.968E-12 -.561E-11   -.959E-13 0.213E-13 0.320E-13   -.332E-16 0.141E-17 0.851E-17   0.240E-12 0.294E-12 -.125E-11
   0.335E-12 -.317E-11 0.109E-11   -.149E-12 -.284E-13 -.231E-13   -.143E-16 -.705E-17 0.431E-17   -.340E-12 0.918E-13 -.239E-11
   -.798E-12 -.776E-12 -.144E-11   -.114E-12 0.426E-13 -.568E-13   -.128E-16 -.180E-16 -.167E-16   -.414E-12 0.434E-12 -.896E-12
   0.337E-12 0.129E-10 -.608E-11   -.711E-13 0.675E-13 -.213E-13   -.202E-16 -.591E-17 -.230E-16   0.548E-12 0.115E-11 -.246E-12
   -.112E-11 0.143E-11 0.609E-12   -.533E-13 -.870E-13 0.533E-13   -.181E-16 -.111E-16 -.290E-17   -.237E-12 0.312E-12 -.283E-11
   0.870E-13 0.354E-11 -.398E-11   -.639E-13 -.995E-13 -.284E-13   -.232E-16 -.659E-17 0.566E-17   0.221E-12 -.763E-12 -.157E-11
   -.120E-11 0.997E-12 0.106E-11   -.110E-12 -.497E-13 0.888E-14   -.245E-16 0.271E-19 -.116E-16   0.825E-12 -.128E-13 0.345E-12
   0.882E-13 -.400E-11 0.995E-11   -.107E-12 -.426E-13 0.355E-13   0.428E-17 -.626E-17 -.941E-17   -.663E-12 0.276E-12 0.619E-12
   -.637E-12 0.453E-11 0.128E-12   -.114E-12 -.199E-12 -.114E-12   -.275E-16 0.398E-17 -.894E-17   0.751E-12 -.419E-12 0.986E-12
   0.255E-12 0.138E-10 0.861E-11   -.711E-13 -.213E-12 -.711E-13   -.466E-17 -.667E-17 -.550E-17   -.831E-12 -.255E-12 0.386E-12
   -.716E-12 -.310E-14 0.355E-13   -.284E-13 -.426E-13 0.142E-13   -.239E-16 -.987E-17 -.117E-17   -.770E-12 -.535E-12 -.209E-11
   0.257E-12 0.740E-14 0.140E-10   0.284E-13 -.105E-12 0.178E-13   -.239E-16 -.114E-16 0.651E-17   0.823E-12 -.339E-12 -.380E-11
   -.112E-11 0.231E-14 0.116E-11   0.568E-13 0.924E-13 -.711E-14   -.126E-16 -.121E-16 -.151E-16   0.549E-12 -.226E-12 0.893E-12
   -.696E-13 0.148E-13 0.405E-14   0.000E+00 -.284E-13 0.000E+00   -.216E-16 -.919E-17 0.566E-17   -.534E-12 -.510E-12 0.177E-11
   -.721E-12 0.121E-11 0.669E-12   -.142E-12 -.995E-13 -.142E-13   -.716E-17 -.539E-17 -.169E-16   0.600E-12 -.339E-13 0.135E-11
   0.252E-12 0.835E-11 0.234E-10   -.156E-12 -.114E-12 0.409E-13   -.721E-17 -.127E-16 -.114E-16   -.584E-12 -.415E-12 0.247E-11
   -.120E-11 0.456E-12 0.160E-11   -.462E-13 -.142E-13 -.178E-14   0.645E-17 -.145E-16 -.102E-16   -.784E-13 -.109E-11 0.312E-11
   0.882E-13 -.153E-11 0.104E-11   0.142E-13 -.142E-13 0.711E-14   -.135E-16 -.187E-16 -.181E-16   0.236E-13 -.581E-12 0.209E-11
   -.112E-11 0.157E-11 0.165E-11   -.284E-13 -.355E-13 0.355E-13   -.296E-16 -.634E-17 -.114E-16   0.338E-12 0.841E-12 0.294E-11
   -.702E-13 -.153E-10 -.250E-11   0.000E+00 -.853E-13 0.142E-12   -.255E-17 -.756E-17 -.943E-17   -.462E-12 0.367E-12 0.166E-11
   -.112E-11 0.984E-12 0.110E-12   -.284E-13 -.112E-12 0.355E-14   -.894E-17 -.778E-17 -.941E-17   -.440E-12 -.208E-12 -.208E-12
   -.714E-13 0.672E-11 -.239E-11   -.533E-13 0.142E-13 -.107E-13   -.813E-18 0.960E-17 -.127E-16   0.326E-12 -.116E-12 -.549E-12
   -.720E-12 0.329E-11 -.118E-11   0.142E-13 -.249E-13 0.114E-12   -.146E-16 0.150E-16 -.415E-17   -.504E-12 -.640E-12 -.127E-11
   0.335E-12 0.103E-10 0.205E-10   0.355E-14 0.178E-14 0.227E-12   -.124E-16 0.786E-18 -.129E-16   0.638E-12 -.144E-11 -.802E-12
   -.175E-11 0.404E-11 0.261E-10   0.284E-12 0.156E-12 -.851E-13   -.217E-18 -.395E-17 -.337E-17   -.159E-11 0.366E-12 0.199E-11
   -.254E-11 -.415E-11 0.950E-11   0.242E-12 0.128E-12 -.851E-13   -.360E-17 -.585E-17 -.393E-18   0.148E-11 0.545E-12 0.224E-11
   -.183E-11 -.184E-10 0.145E-10   0.227E-12 0.160E-12 0.142E-13   -.572E-17 -.285E-17 -.219E-17   0.563E-12 0.140E-11 0.171E-11
   -.254E-11 -.944E-12 0.996E-11   0.242E-12 0.714E-13 0.142E-13   -.680E-17 -.279E-17 0.130E-17   -.494E-12 0.110E-11 0.164E-11
   -.103E-11 -.577E-11 -.582E-11   0.154E-12 0.817E-13 -.284E-13   0.182E-17 -.434E-17 -.742E-17   -.175E-12 0.625E-12 -.202E-11
   -.230E-11 -.687E-12 -.663E-11   0.181E-12 0.142E-12 0.000E+00   0.271E-19 -.543E-17 0.117E-17   0.241E-12 0.141E-13 0.774E-13
   -.111E-11 -.118E-10 0.287E-12   0.159E-12 0.211E-13 -.239E-13   0.436E-17 -.311E-17 -.225E-17   -.339E-13 0.101E-11 -.310E-11
   -.231E-11 -.291E-11 -.985E-11   0.171E-12 0.638E-13 0.188E-13   -.127E-17 -.365E-17 -.558E-17   -.185E-12 -.781E-13 -.241E-11
   -.111E-11 -.237E-10 0.744E-11   0.132E-12 0.320E-13 0.284E-13   -.136E-17 -.569E-18 -.720E-17   -.421E-12 -.564E-12 0.274E-11
   -.223E-11 -.108E-10 -.173E-11   0.158E-12 -.853E-13 0.284E-13   0.894E-18 -.257E-17 0.874E-18   0.199E-12 -.266E-12 0.579E-12
   -.111E-11 -.155E-10 -.126E-10   0.131E-12 0.160E-12 -.709E-13   0.450E-17 0.339E-19 0.637E-18   -.121E-12 -.354E-12 0.316E-11
   -.238E-11 0.472E-11 -.121E-10   0.720E-13 0.176E-13 0.143E-13   0.144E-17 0.187E-17 -.282E-17   0.832E-13 0.650E-12 0.214E-11
   -.159E-11 0.215E-11 0.136E-10   0.604E-13 0.292E-13 -.107E-12   -.106E-17 -.925E-17 0.169E-18   0.170E-12 -.810E-12 0.150E-11
   -.254E-11 -.206E-11 0.970E-11   0.426E-13 0.111E-12 -.711E-14   -.127E-17 0.406E-17 -.646E-17   -.223E-12 -.545E-12 0.133E-11
   -.175E-11 -.128E-10 0.922E-11   0.604E-13 0.107E-12 -.256E-14   -.117E-17 -.153E-17 -.396E-17   0.172E-11 0.310E-13 -.352E-11
   -.246E-11 -.152E-11 0.954E-11   0.114E-12 0.782E-13 -.256E-14   0.325E-18 -.403E-17 -.534E-17   -.152E-11 -.305E-12 -.287E-11
   -.135E-11 0.123E-10 0.263E-12   0.585E-13 0.480E-13 -.148E-13   -.325E-18 -.922E-18 -.381E-17   -.278E-12 -.535E-12 -.246E-11
   -.223E-11 0.653E-11 -.784E-11   0.709E-13 0.119E-12 -.100E-12   0.515E-18 -.199E-17 0.158E-17   0.217E-12 0.596E-12 -.167E-11
   -.127E-11 -.580E-11 0.162E-10   -.172E-13 -.391E-13 -.142E-13   -.306E-17 -.125E-17 0.386E-17   -.955E-14 0.114E-11 0.248E-11
   -.238E-11 -.277E-11 -.175E-10   -.191E-13 -.711E-13 0.142E-13   -.314E-17 -.358E-17 -.121E-17   -.227E-13 0.743E-12 0.544E-12
   -.175E-11 0.676E-12 -.131E-10   -.675E-13 -.639E-13 -.716E-13   0.325E-17 -.428E-17 0.174E-17   0.483E-12 0.573E-12 -.147E-11
   -.246E-11 -.290E-11 0.877E-11   -.568E-13 -.355E-13 0.989E-13   -.271E-18 -.117E-17 -.410E-17   -.531E-12 0.886E-12 -.165E-11
   -.111E-11 0.880E-11 0.142E-10   0.161E-12 0.188E-12 -.128E-12   -.477E-17 -.633E-17 -.285E-17   0.286E-12 0.708E-13 -.212E-11
   -.223E-11 0.525E-11 -.321E-11   0.145E-12 0.185E-12 -.142E-13   -.415E-17 0.407E-19 -.371E-17   -.314E-12 0.504E-12 0.106E-12
   -.159E-11 0.104E-10 -.701E-12   -.142E-13 0.167E-12 -.995E-13   -.813E-18 -.651E-17 -.732E-18   -.257E-12 -.637E-12 -.107E-11
   -.223E-11 -.208E-11 0.902E-11   0.426E-13 0.571E-13 -.426E-13   0.949E-18 -.372E-17 -.557E-17   0.106E-12 -.968E-13 -.104E-11
   -.183E-11 -.256E-10 -.391E-11   -.153E-12 -.969E-13 -.497E-13   -.732E-18 -.421E-17 -.670E-17   -.755E-12 0.113E-11 -.910E-12
   -.254E-11 -.216E-11 0.889E-11   -.142E-12 0.132E-13 0.213E-13   0.220E-17 -.867E-18 -.252E-17   0.637E-12 0.638E-12 -.794E-12
   -.183E-11 -.122E-10 0.240E-11   0.142E-13 0.142E-13 0.141E-13   -.108E-17 -.316E-17 0.107E-17   -.609E-12 0.168E-12 0.393E-11
   -.238E-11 -.213E-11 0.942E-11   -.142E-13 0.142E-13 0.141E-13   -.117E-17 0.166E-17 -.411E-17   0.492E-12 -.617E-13 0.337E-11
   -.135E-11 0.165E-10 -.124E-10   -.705E-13 -.994E-13 0.352E-13   0.239E-17 -.122E-18 -.354E-17   0.153E-12 0.900E-12 0.365E-11
   -.238E-11 -.294E-11 -.132E-10   -.143E-12 0.427E-13 -.927E-13   -.371E-17 -.693E-17 -.691E-18   -.616E-13 -.495E-13 0.286E-11
 -----------------------------------------------------------------------------------------------
   -.744E-10 -.701E-10 0.166E-09   -.131E-12 -.238E-12 -.158E-12   -.502E-15 -.277E-15 -.293E-15   -.101E-11 0.542E-11 0.106E-10
 
 
 POSITION                                       TOTAL-FORCE (eV/Angst)
 -----------------------------------------------------------------------------------
      0.00000      0.00000      0.00000        -0.000000      0.000000     -0.000000
      5.71906      0.00000      0.00000         0.000000      0.000000      0.000000
      0.00000      2.85953      2.85953         0.000000      0.000000     -0.000000
      5.71906      2.85953      2.85953         0.000000      0.000000      0.000000
      2.85953      0.00000      8.57858         0.000000     -0.000000     -0.000000
      8.57858      0.00000      8.57858        -0.000000      0.000000      0.000000
      2.85953      2.85953      5.71906         0.000000      0.000000     -0.000000
      8.57858      2.85953      5.71906         0.000000      0.000000     -0.000000
      2.85953      5.71906      2.85953        -0.000000      0.000000     -0.000000
      8.57858      5.71906      2.85953         0.000000      0.000000     -0.000000
      2.85953      8.57858      0.00000         0.000000      0.000000      0.000000
      8.57858      8.57858      0.00000         0.000000     -0.000000     -0.000000
      0.00000      8.57858      2.85953         0.000000      0.000000     -0.000000
      5.71906      8.57858      2.85953        -0.000000     -0.000000     -0.000000
      0.00000      5.71906      5.71906         0.000000      0.000000      0.000000
      5.71906      5.71906      5.71906        -0.000000      0.000000     -0.000000
      2.85953      8.57858      5.71906         0.000000      0.000000     -0.000000
      8.57858      8.57858      5.71906        -0.000000      0.000000      0.000000
      2.85953      0.00000      2.85953         0.000000      0.000000     -0.000000
      8.57858      0.00000      2.85953        -0.000000     -0.000000     -0.000000
      0.00000      0.00000      5.71906         0.000000      0.000000      0.000000
      5.71906      0.00000      5.71906        -0.000000      0.000000     -0.000000
      2.85953      5.71906      8.57858         0.000000      0.000000      0.000000
      8.57858      5.71906      8.57858         0.000000     -0.000000      0.000000
      0.00000      2.85953      8.57858         0.000000      0.000000      0.000000
      5.71906      2.85953      8.57858         0.000000     -0.000000      0.000000
      0.00000      8.57858      8.57858         0.000000     -0.000000      0.000000
      5.71906      8.57858      8.57858         0.000000      0.000000      0.000000
      0.00000      5.71906      0.00000         0.000000      0.000000     -0.000000
      5.71906      5.71906      0.00000         0.000000      0.000000      0.000000
      2.85953      2.85953      0.00000         0.000000     -0.000000     -0.000000
      8.57858      2.85953      0.00000         0.000000      0.000000      0.000000
      7.14882      7.14882      7.14882         0.000000     -0.000000     -0.000000
      1.42976      7.14882      7.14882        -0.000000     -0.000000      0.000000
      7.14882     10.00835     10.00835         0.000000      0.000000     -0.000000
      1.42976     10.00835     10.00835        -0.000000     -0.000000      0.000000
     10.00835      7.14882      4.28929         0.000000     -0.000000     -0.000000
      4.28929      7.14882      4.28929        -0.000000     -0.000000      0.000000
     10.00835     10.00835      1.42976        -0.000000     -0.000000      0.000000
      4.28929     10.00835      1.42976        -0.000000     -0.000000      0.000000
     10.00835      1.42976     10.00835         0.000000     -0.000000      0.000000
      4.28929      1.42976     10.00835        -0.000000     -0.000000      0.000000
     10.00835      4.28929      7.14882        -0.000000      0.000000     -0.000000
      4.28929      4.28929      7.14882         0.000000      0.000000     -0.000000
      7.14882      4.28929     10.00835        -0.000000     -0.000000      0.000000
      1.42976      4.28929     10.00835         0.000000      0.000000     -0.000000
      7.14882      1.42976      1.42976        -0.000000     -0.000000      0.000000
      1.42976      1.42976      1.42976        -0.000000      0.000000     -0.000000
     10.00835      4.28929      1.42976        -0.000000     -0.000000      0.000000
      4.28929      4.28929      1.42976        -0.000000     -0.000000     -0.000000
     10.00835      7.14882     10.00835        -0.000000     -0.000000      0.000000
      4.28929      7.14882     10.00835         0.000000     -0.000000     -0.000000
      7.14882      7.14882      1.42976        -0.000000     -0.000000     -0.000000
      1.42976      7.14882      1.42976         0.000000     -0.000000      0.000000
     10.00835      1.42976      4.28929        -0.000000     -0.000000      0.000000
      4.28929      1.42976      4.28929         0.000000     -0.000000     -0.000000
      7.14882     10.00835      4.28929        -0.000000     -0.000000      0.000000
      1.42976     10.00835      4.28929         0.000000      0.000000     -0.000000
      7.14882      4.28929      4.28929         0.000000      0.000000     -0.000000
      1.42976      4.28929      4.28929        -0.000000     -0.000000      0.000000
      7.14882      1.42976      7.14882        -0.000000     -0.000000     -0.000000
      1.42976      1.42976      7.14882         0.000000     -0.000000      0.000000
     10.00835     10.00835      7.14882         0.000000     -0.000000      0.000000
      4.28929     10.00835      7.14882        -0.000000      0.000000      0.000000
 -----------------------------------------------------------------------------------
    total drift:                               -0.000000     -0.000000      0.000000


--------------------------------------------------------------------------------------------------------



  FREE ENERGIE OF THE ION-ELECTRON SYSTEM (eV)
  ---------------------------------------------------
  free  energy   TOTEN  =      -307.64980253 eV

  energy  without entropy=     -307.64980252  energy(sigma->0) =     -307.64980253
 


--------------------------------------------------------------------------------------------------------


    POTLOK:  cpu time    0.0370: real time    0.0528


--------------------------------------------------------------------------------------------------------




--------------------------------------------------------------------------------------------------------


  
 reached required accuracy - stopping structural energy minimisation
     LOOP+:  cpu time  277.4728: real time  278.6134
    4ORBIT:  cpu time    0.0000: real time    0.0000

 total amount of memory used by VASP on root node    96841. kBytes
========================================================================

   base      :      30000. kBytes
   nonlr-proj:       6220. kBytes
   fftplans  :       4769. kBytes
   grid      :       7276. kBytes
   one-center:        248. kBytes
   wavefun   :      48328. kBytes
 
  
  
 General timing and accounting informations for this job:
 ========================================================
  
                  Total CPU time used (sec):      286.716
                            User time (sec):      279.799
                          System time (sec):        6.917
                         Elapsed time (sec):      288.156
  
                   Maximum memory used (kb):      131456.
                   Average memory used (kb):           0.
  
                          Minor page faults:      2554854
                          Major page faults:           95
                 Voluntary context switches:         3690
