 vasp.5.4.1 24Jun15 (build Jan 04 2019 14:02:05) complex                        
  
 executed on           IFC91_ompi date 2019.03.05  03:15:59
 running on   28 total cores
 distrk:  each k-point on   28 cores,    1 groups
 distr:  one band on NCORES_PER_BAND=   4 cores,    7 groups


--------------------------------------------------------------------------------------------------------


 INCAR:
 POTCAR:    PAW Ga_d 06Jul2010                    
 POTCAR:    PAW As_d 11Apr2003                    
 POTCAR:    PAW Ga_d 06Jul2010                    
   VRHFIN =Ga: s2p1                                                             
   LEXCH  = CA                                                                  
   EATOM  =  2154.4592 eV,  158.3483 Ry                                         
                                                                                
   TITEL  = PAW Ga_d 06Jul2010                                                  
   LULTRA =        F    use ultrasoft PP ?                                      
   IUNSCR =        1    unscreen: 0-lin 1-nonlin 2-no                           
   RPACOR =    1.700    partial core radius                                     
   POMASS =   69.723; ZVAL   =   13.000    mass and valenz                      
   RCORE  =    2.300    outmost cutoff radius                                   
   RWIGS  =    2.300; RWIGS  =    1.217    wigner-seitz radius (au A)           
   ENMAX  =  282.829; ENMIN  =  212.121 eV                                      
   ICORE  =        3    local potential                                         
   LCOR   =        T    correct aug charges                                     
   LPAW   =        T    paw PP                                                  
   EAUG   =  490.690                                                            
   DEXC   =    0.000                                                            
   RMAX   =    2.341    core radius for proj-oper                               
   RAUG   =    1.300    factor for augmentation sphere                          
   RDEP   =    2.413    radius for radial grids                                 
   RDEPT  =    1.856    core radius for aug-charge                              
                                                                                
   Atomic configuration                                                         
    9 entries                                                                   
     n  l   j            E        occ.                                          
     1  0  0.50    -10177.9539   2.0000                                         
     2  0  0.50     -1257.0037   2.0000                                         
     2  1  1.50     -1096.5304   6.0000                                         
     3  0  0.50      -147.0449   2.0000                                         
     3  1  1.50       -98.5146   6.0000                                         
     3  2  2.50       -19.4350  10.0000                                         
     4  0  0.50        -9.1573   2.0000                                         
     4  1  0.50        -2.7399   1.0000                                         
     4  3  2.50        -2.7416   0.0000                                         
   Description                                                                  
     l       E           TYP  RCUT    TYP  RCUT                                 
     2    -19.4350265     23  2.300                                             
     2     -5.4423304     23  2.300                                             
     0     -9.1573136     23  2.300                                             
     0     68.0291300     23  2.300                                             
     1     -2.7399180     23  2.100                                             
     1     81.6349560     23  2.300                                             
     3      6.8029130     23  2.300                                             
  local pseudopotential read in
  partial core-charges read in
  partial kinetic energy density read in
  atomic valenz-charges read in
  non local Contribution for L=           2  read in
    real space projection operators read in
  non local Contribution for L=           2  read in
    real space projection operators read in
  non local Contribution for L=           0  read in
    real space projection operators read in
  non local Contribution for L=           0  read in
    real space projection operators read in
  non local Contribution for L=           1  read in
    real space projection operators read in
  non local Contribution for L=           1  read in
    real space projection operators read in
    PAW grid and wavefunctions read in
 
   number of l-projection  operators is LMAX  =           6
   number of lm-projection operators is LMMAX =          18
 
 POTCAR:    PAW As_d 11Apr2003                    
   VRHFIN =As: d10s2p3                                                          
   LEXCH  = CA                                                                  
   EATOM  =  3100.2560 eV,  227.8624 Ry                                         
                                                                                
   TITEL  = PAW As_d 11Apr2003                                                  
   LULTRA =        F    use ultrasoft PP ?                                      
   IUNSCR =        1    unscreen: 0-lin 1-nonlin 2-no                           
   RPACOR =    2.000    partial core radius                                     
   POMASS =   74.922; ZVAL   =   15.000    mass and valenz                      
   RCORE  =    2.300    outmost cutoff radius                                   
   RWIGS  =    2.300; RWIGS  =    1.217    wigner-seitz radius (au A)           
   ENMAX  =  288.762; ENMIN  =  216.572 eV                                      
   ICORE  =        3    local potential                                         
   LCOR   =        T    correct aug charges                                     
   LPAW   =        T    paw PP                                                  
   EAUG   =  525.949                                                            
   DEXC   =    0.000                                                            
   RMAX   =    2.360    core radius for proj-oper                               
   RAUG   =    1.300    factor for augmentation sphere                          
   RDEP   =    2.432    radius for radial grids                                 
   RDEPT  =    1.871    core radius for aug-charge                              
                                                                                
   Atomic configuration                                                         
    9 entries                                                                   
     n  l   j            E        occ.                                          
     1  0  0.50    -11659.1331   2.0000                                         
     2  0  0.50     -1480.5455   2.0000                                         
     2  1  1.50     -1300.8395   6.0000                                         
     3  0  0.50      -189.0128   2.0000                                         
     3  1  1.50      -133.2331   6.0000                                         
     3  2  2.50       -40.9396  10.0000                                         
     4  0  0.50       -14.6732   2.0000                                         
     4  1  0.50        -5.3484   3.0000                                         
     4  3  2.50        -5.4423   0.0000                                         
   Description                                                                  
     l       E           TYP  RCUT    TYP  RCUT                                 
     2    -40.9396402     23  2.300                                             
     2     -1.3605826     23  2.300                                             
     0    -14.6731860     23  2.300                                             
     0    -12.1858709     23  2.300                                             
     1     -5.3484093     23  2.300                                             
     1      1.7733903     23  2.300                                             
     3     -1.3605826      7  2.300                                             
  local pseudopotential read in
  partial core-charges read in
  partial kinetic energy density read in
  atomic valenz-charges read in
  non local Contribution for L=           2  read in
    real space projection operators read in
  non local Contribution for L=           2  read in
    real space projection operators read in
  non local Contribution for L=           0  read in
    real space projection operators read in
  non local Contribution for L=           0  read in
    real space projection operators read in
  non local Contribution for L=           1  read in
    real space projection operators read in
  non local Contribution for L=           1  read in
    real space projection operators read in
    PAW grid and wavefunctions read in
 
   number of l-projection  operators is LMAX  =           6
   number of lm-projection operators is LMMAX =          18
 
 Optimization of the real space projectors (new method)

 maximal supplied QI-value         = 16.25
 optimisation between [QCUT,QGAM] = [ 11.38, 22.75] = [ 36.24,144.96] Ry 
 Optimized for a Real-space Cutoff    1.35 Angstroem

   l    n(q)    QCUT    max X(q) W(low)/X(q) W(high)/X(q)  e(spline) 
   2      8    11.376     7.160    0.23E-03    0.28E-03    0.13E-06
   2      8    11.376     5.555    0.49E-03    0.56E-03    0.20E-06
   0      9    11.376    12.310    0.60E-04    0.47E-04    0.22E-07
   0      9    11.376     6.591    0.12E-03    0.98E-04    0.49E-07
   1      9    11.376     7.817    0.22E-03    0.30E-03    0.14E-06
   1      9    11.376     2.416    0.19E-03    0.26E-03    0.13E-06
 Optimization of the real space projectors (new method)

 maximal supplied QI-value         = 16.25
 optimisation between [QCUT,QGAM] = [ 11.38, 22.75] = [ 36.24,144.96] Ry 
 Optimized for a Real-space Cutoff    1.27 Angstroem

   l    n(q)    QCUT    max X(q) W(low)/X(q) W(high)/X(q)  e(spline) 
   2      8    11.376    15.961    0.11E-03    0.23E-03    0.99E-07
   2      8    11.376     6.274    0.17E-03    0.37E-03    0.13E-06
   0      9    11.376    98.969    0.92E-04    0.20E-03    0.90E-07
   0      9    11.376    79.622    0.98E-04    0.21E-03    0.96E-07
   1      8    11.376    38.979    0.40E-03    0.88E-04    0.16E-06
   1      8    11.376    26.921    0.39E-03    0.93E-04    0.16E-06
  PAW Ga_d 06Jul2010                    :
 energy of atom  1       EATOM=-2154.4592
 kinetic energy error for atom=    0.0027 (will be added to EATOM!!)
  PAW As_d 11Apr2003                    :
 energy of atom  2       EATOM=-3100.2560
 kinetic energy error for atom=    0.0019 (will be added to EATOM!!)
 
 
 POSCAR: POSCAR with -8.23987132543              
  positions in direct lattice
  No initial velocities read in
 exchange correlation table for  LEXCH =        2
   RHO(1)=    0.500       N(1)  =     2000
   RHO(2)=  100.500       N(2)  =     4000
 


--------------------------------------------------------------------------------------------------------


 ion  position               nearest neighbor table
   1  0.000  0.000  0.000-  36 2.57  39 2.57  41 2.57  48 2.57
   2  0.500  0.000  0.000-  35 2.57  40 2.57  42 2.57  47 2.57
   3  0.000  0.250  0.250-  48 2.57  49 2.57  55 2.57  60 2.57
   4  0.500  0.250  0.250-  47 2.57  50 2.57  56 2.57  59 2.57
   5  0.250  0.000  0.750-  36 2.57  42 2.57  62 2.57  64 2.57
   6  0.750  0.000  0.750-  35 2.57  41 2.57  61 2.57  63 2.57
   7  0.250  0.250  0.500-  44 2.57  56 2.57  60 2.57  62 2.57
   8  0.750  0.250  0.500-  43 2.57  55 2.57  59 2.57  61 2.57
   9  0.250  0.500  0.250-  38 2.57  50 2.57  54 2.57  60 2.57
  10  0.750  0.500  0.250-  37 2.57  49 2.57  53 2.57  59 2.57
  11  0.250  0.750  0.000-  36 2.57  40 2.57  52 2.57  54 2.57
  12  0.750  0.750  0.000-  35 2.57  39 2.57  51 2.57  53 2.57
  13  0.000  0.750  0.250-  37 2.57  39 2.57  54 2.57  58 2.57
  14  0.500  0.750  0.250-  38 2.57  40 2.57  53 2.57  57 2.57
  15  0.000  0.500  0.500-  34 2.57  37 2.57  43 2.57  60 2.57
  16  0.500  0.500  0.500-  33 2.57  38 2.57  44 2.57  59 2.57
  17  0.250  0.750  0.500-  34 2.57  38 2.57  58 2.57  64 2.57
  18  0.750  0.750  0.500-  33 2.57  37 2.57  57 2.57  63 2.57
  19  0.250  0.000  0.250-  40 2.57  48 2.57  56 2.57  58 2.57
  20  0.750  0.000  0.250-  39 2.57  47 2.57  55 2.57  57 2.57
  21  0.000  0.000  0.500-  55 2.57  58 2.57  62 2.57  63 2.57
  22  0.500  0.000  0.500-  56 2.57  57 2.57  61 2.57  64 2.57
  23  0.250  0.500  0.750-  34 2.57  44 2.57  46 2.57  52 2.57
  24  0.750  0.500  0.750-  33 2.57  43 2.57  45 2.57  51 2.57
  25  0.000  0.250  0.750-  41 2.57  43 2.57  46 2.57  62 2.57
  26  0.500  0.250  0.750-  42 2.57  44 2.57  45 2.57  61 2.57
  27  0.000  0.750  0.750-  34 2.57  36 2.57  51 2.57  63 2.57
  28  0.500  0.750  0.750-  33 2.57  35 2.57  52 2.57  64 2.57
  29  0.000  0.500  0.000-  46 2.57  49 2.57  51 2.57  54 2.57
  30  0.500  0.500  0.000-  45 2.57  50 2.57  52 2.57  53 2.57
  31  0.250  0.250  0.000-  42 2.57  46 2.57  48 2.57  50 2.57
  32  0.750  0.250  0.000-  41 2.57  45 2.57  47 2.57  49 2.57
  33  0.625  0.625  0.625-  16 2.57  18 2.57  24 2.57  28 2.57
  34  0.125  0.625  0.625-  15 2.57  17 2.57  23 2.57  27 2.57
  35  0.625  0.875  0.875-   2 2.57   6 2.57  12 2.57  28 2.57
  36  0.125  0.875  0.875-   1 2.57   5 2.57  11 2.57  27 2.57
  37  0.875  0.625  0.375-  10 2.57  13 2.57  15 2.57  18 2.57
  38  0.375  0.625  0.375-   9 2.57  14 2.57  16 2.57  17 2.57
  39  0.875  0.875  0.125-   1 2.57  12 2.57  13 2.57  20 2.57
  40  0.375  0.875  0.125-   2 2.57  11 2.57  14 2.57  19 2.57
  41  0.875  0.125  0.875-   1 2.57   6 2.57  25 2.57  32 2.57
  42  0.375  0.125  0.875-   2 2.57   5 2.57  26 2.57  31 2.57
  43  0.875  0.375  0.625-   8 2.57  15 2.57  24 2.57  25 2.57
  44  0.375  0.375  0.625-   7 2.57  16 2.57  23 2.57  26 2.57
  45  0.625  0.375  0.875-  24 2.57  26 2.57  30 2.57  32 2.57
  46  0.125  0.375  0.875-  23 2.57  25 2.57  29 2.57  31 2.57
  47  0.625  0.125  0.125-   2 2.57   4 2.57  20 2.57  32 2.57
  48  0.125  0.125  0.125-   1 2.57   3 2.57  19 2.57  31 2.57
  49  0.875  0.375  0.125-   3 2.57  10 2.57  29 2.57  32 2.57
  50  0.375  0.375  0.125-   4 2.57   9 2.57  30 2.57  31 2.57
  51  0.875  0.625  0.875-  12 2.57  24 2.57  27 2.57  29 2.57
  52  0.375  0.625  0.875-  11 2.57  23 2.57  28 2.57  30 2.57
  53  0.625  0.625  0.125-  10 2.57  12 2.57  14 2.57  30 2.57
  54  0.125  0.625  0.125-   9 2.57  11 2.57  13 2.57  29 2.57
  55  0.875  0.125  0.375-   3 2.57   8 2.57  20 2.57  21 2.57
  56  0.375  0.125  0.375-   4 2.57   7 2.57  19 2.57  22 2.57
  57  0.625  0.875  0.375-  14 2.57  18 2.57  20 2.57  22 2.57
  58  0.125  0.875  0.375-  13 2.57  17 2.57  19 2.57  21 2.57
  59  0.625  0.375  0.375-   4 2.57   8 2.57  10 2.57  16 2.57
  60  0.125  0.375  0.375-   3 2.57   7 2.57   9 2.57  15 2.57
  61  0.625  0.125  0.625-   6 2.57   8 2.57  22 2.57  26 2.57
  62  0.125  0.125  0.625-   5 2.57   7 2.57  21 2.57  25 2.57
  63  0.875  0.875  0.625-   6 2.57  18 2.57  21 2.57  27 2.57
  64  0.375  0.875  0.625-   5 2.57  17 2.57  22 2.57  28 2.57
 
  LATTYP: Found a simple cubic cell.
 ALAT       =    11.8825587710
  
  Lattice vectors:
  
 A1 = (  11.8825587710,   0.0000000000,   0.0000000000)
 A2 = (   0.0000000000,  11.8825587710,   0.0000000000)
 A3 = (   0.0000000000,   0.0000000000,  11.8825587710)


Analysis of symmetry for initial positions (statically):
=====================================================================
 Subroutine PRICEL returns following result:
 
  LATTYP: Found a face centered cubic cell.
 ALAT       =     5.9412793855
  
  Lattice vectors:
  
 A1 = (   2.9706396928,   2.9706396928,  -0.0000000000)
 A2 = (   2.9706396928,   0.0000000000,  -2.9706396928)
 A3 = (   0.0000000000,   2.9706396928,  -2.9706396928)
 
  32 primitive cells build up your supercell.
 

 Routine SETGRP: Setting up the symmetry group for a 
 simple cubic supercell.


 Subroutine GETGRP returns: Found 24 space group operations
 (whereof 24 operations were pure point group operations)
 out of a pool of 48 trial point group operations.


The static configuration has the point symmetry T_d .


Analysis of symmetry for dynamics (positions and initial velocities):
=====================================================================
 Subroutine PRICEL returns following result:
 
  LATTYP: Found a face centered cubic cell.
 ALAT       =     5.9412793855
  
  Lattice vectors:
  
 A1 = (   2.9706396928,   2.9706396928,  -0.0000000000)
 A2 = (   2.9706396928,   0.0000000000,  -2.9706396928)
 A3 = (   0.0000000000,   2.9706396928,  -2.9706396928)
 
  32 primitive cells build up your supercell.
 

 Routine SETGRP: Setting up the symmetry group for a 
 simple cubic supercell.


 Subroutine GETGRP returns: Found 24 space group operations
 (whereof 24 operations were pure point group operations)
 out of a pool of 48 trial point group operations.


The dynamic configuration has the point symmetry T_d .


 Subroutine INISYM returns: Found 24 space group operations
 (whereof 24 operations are pure point group operations),
 and found    32 'primitive' translations

 
 
 KPOINTS: koint                                   

Automatic generation of k-mesh.
Space group operators:
 irot       det(A)        alpha          n_x          n_y          n_z        tau_x        tau_y        tau_z
    1     1.000000     0.000001     1.000000     0.000000     0.000000     0.000000     0.000000     0.000000
    2     1.000000   120.000000    -0.577350    -0.577350    -0.577350     0.000000     0.000000     0.000000
    3     1.000000   120.000000     0.577350     0.577350     0.577350     0.000000     0.000000     0.000000
    4    -1.000000    90.000000     0.000000     0.000000    -1.000000     0.000000     0.000000     0.000000
    5    -1.000000   180.000000     0.000000     0.707107     0.707107     0.000000     0.000000     0.000000
    6    -1.000000    90.000000     0.000000     1.000000     0.000000     0.000000     0.000000     0.000000
    7     1.000000   180.000000     0.000000     0.000000     1.000000     0.000000     0.000000     0.000000
    8     1.000000   120.000000    -0.577350     0.577350     0.577350     0.000000     0.000000     0.000000
    9     1.000000   120.000000    -0.577350     0.577350    -0.577350     0.000000     0.000000     0.000000
   10    -1.000000    90.000000     0.000000     0.000000     1.000000     0.000000     0.000000     0.000000
   11    -1.000000    90.000000    -1.000000     0.000000     0.000000     0.000000     0.000000     0.000000
   12    -1.000000   180.000000     0.707107     0.000000     0.707107     0.000000     0.000000     0.000000
   13     1.000000   120.000000     0.577350    -0.577350     0.577350     0.000000     0.000000     0.000000
   14     1.000000   120.000000    -0.577350    -0.577350     0.577350     0.000000     0.000000     0.000000
   15     1.000000   180.000000     1.000000     0.000000     0.000000     0.000000     0.000000     0.000000
   16    -1.000000    90.000000     0.000000    -1.000000     0.000000     0.000000     0.000000     0.000000
   17    -1.000000   180.000000     0.707107     0.707107     0.000000     0.000000     0.000000     0.000000
   18    -1.000000    90.000000     1.000000     0.000000     0.000000     0.000000     0.000000     0.000000
   19     1.000000   120.000000     0.577350    -0.577350    -0.577350     0.000000     0.000000     0.000000
   20     1.000000   180.000000     0.000000     1.000000     0.000000     0.000000     0.000000     0.000000
   21     1.000000   120.000000     0.577350     0.577350    -0.577350     0.000000     0.000000     0.000000
   22    -1.000000   180.000000     0.000000    -0.707107     0.707107     0.000000     0.000000     0.000000
   23    -1.000000   180.000000     0.707107    -0.707107     0.000000     0.000000     0.000000     0.000000
   24    -1.000000   180.000000     0.707107     0.000000    -0.707107     0.000000     0.000000     0.000000
 
 Subroutine IBZKPT returns following result:
 ===========================================
 
 Found      4 irreducible k-points:
 
 Following reciprocal coordinates:
            Coordinates               Weight
  0.000000  0.000000  0.000000      1.000000
  0.333333  0.000000  0.000000      6.000000
  0.333333  0.333333  0.000000     12.000000
  0.333333  0.333333  0.333333      8.000000
 
 Following cartesian coordinates:
            Coordinates               Weight
  0.000000  0.000000  0.000000      1.000000
  0.028052  0.000000  0.000000      6.000000
  0.028052  0.028052  0.000000     12.000000
  0.028052  0.028052  0.028052      8.000000
 


--------------------------------------------------------------------------------------------------------




 Dimension of arrays:
   k-points           NKPTS =      4   k-points in BZ     NKDIM =      4   number of bands    NBANDS=    539
   number of dos      NEDOS =    301   number of ions     NIONS =     64
   non local maximal  LDIM  =      6   non local SUM 2l+1 LMDIM =     18
   total plane-waves  NPLWV = 343000
   max r-space proj   IRMAX =   2153   max aug-charges    IRDMAX=   7946
   dimension x,y,z NGX =    70 NGY =   70 NGZ =   70
   dimension x,y,z NGXF=   140 NGYF=  140 NGZF=  140
   support grid    NGXF=   140 NGYF=  140 NGZF=  140
   ions per type =              32  32
 NGX,Y,Z   is equivalent  to a cutoff of   9.79,  9.79,  9.79 a.u.
 NGXF,Y,Z  is equivalent  to a cutoff of  19.59, 19.59, 19.59 a.u.


 I would recommend the setting:
   dimension x,y,z NGX =    65 NGY =   65 NGZ =   65
 SYSTEM =  unknown system                          
 POSCAR =  POSCAR with -8.23987132543              

 Startparameter for this run:
   NWRITE =      2    write-flag & timer
   PREC   = normal    normal or accurate (medium, high low for compatibility)
   ISTART =      0    job   : 0-new  1-cont  2-samecut
   ICHARG =      2    charge: 1-file 2-atom 10-const
   ISPIN  =      1    spin polarized calculation?
   LNONCOLLINEAR =      F non collinear calculations
   LSORBIT =      F    spin-orbit coupling
   INIWAV =      1    electr: 0-lowe 1-rand  2-diag
   LASPH  =      F    aspherical Exc in radial PAW
   METAGGA=      F    non-selfconsistent MetaGGA calc.

 Electronic Relaxation 1
   ENCUT  =  500.0 eV  36.75 Ry    6.06 a.u.  21.66 21.66 21.66*2*pi/ulx,y,z
   ENINI  =  500.0     initial cutoff
   ENAUG  =  525.9 eV  augmentation charge cutoff
   NELM   =     60;   NELMIN=  2; NELMDL= -5     # of ELM steps 
   EDIFF  = 0.1E-05   stopping-criterion for ELM
   LREAL  =      T    real-space projection
   NLSPLINE    = F    spline interpolate recip. space projectors
   LCOMPAT=      F    compatible to vasp.4.4
   GGA_COMPAT  = T    GGA compatible to vasp.4.4-vasp.4.6
   LMAXPAW     = -100 max onsite density
   LMAXMIX     =    2 max onsite mixed and CHGCAR
   VOSKOWN=      0    Vosko Wilk Nusair interpolation
   ROPT   =   -0.00050  -0.00050
 Ionic relaxation
   EDIFFG = -.2E-01   stopping-criterion for IOM
   NSW    =    100    number of steps for IOM
   NBLOCK =      1;   KBLOCK =    100    inner block; outer block 
   IBRION =      2    ionic relax: 0-MD 1-quasi-New 2-CG
   NFREE  =      1    steps in history (QN), initial steepest desc. (CG)
   ISIF   =      2    stress and relaxation
   IWAVPR =     11    prediction:  0-non 1-charg 2-wave 3-comb
   ISYM   =      2    0-nonsym 1-usesym 2-fastsym
   LCORR  =      T    Harris-Foulkes like correction to forces

   POTIM  = 0.5000    time-step for ionic-motion
   TEIN   =    0.0    initial temperature
   TEBEG  =    0.0;   TEEND  =   0.0 temperature during run
   SMASS  =  -3.00    Nose mass-parameter (am)
   estimated Nose-frequenzy (Omega)   =  0.10E-29 period in steps =****** mass=  -0.323E-26a.u.
   SCALEE = 1.0000    scale energy and forces
   NPACO  =    256;   APACO  = 16.0  distance and # of slots for P.C.
   PSTRESS=    0.0 pullay stress

  Mass of Ions in am
   POMASS =  69.72 74.92
  Ionic Valenz
   ZVAL   =  13.00 15.00
  Atomic Wigner-Seitz radii
   RWIGS  =  -1.00 -1.00
  virtual crystal weights 
   VCA    =   1.00  1.00
   NELECT =     896.0000    total number of electrons
   NUPDOWN=      -1.0000    fix difference up-down

 DOS related values:
   EMIN   =  10.00;   EMAX   =-10.00  energy-range for DOS
   EFERMI =   0.00
   ISMEAR =     0;   SIGMA  =   0.01  broadening in eV -4-tet -1-fermi 0-gaus

 Electronic relaxation 2 (details)
   IALGO  =     38    algorithm
   LDIAG  =      T    sub-space diagonalisation (order eigenvalues)
   LSUBROT=      F    optimize rotation matrix (better conditioning)
   TURBO    =      0    0=normal 1=particle mesh
   IRESTART =      0    0=no restart 2=restart with 2 vectors
   NREBOOT  =      0    no. of reboots
   NMIN     =      0    reboot dimension
   EREF     =   0.00    reference energy to select bands
   IMIX   =      4    mixing-type and parameters
     AMIX     =   0.40;   BMIX     =  1.00
     AMIX_MAG =   1.60;   BMIX_MAG =  1.00
     AMIN     =   0.10
     WC   =   100.;   INIMIX=   1;  MIXPRE=   1;  MAXMIX= -45

 Intra band minimization:
   WEIMIN = 0.0010     energy-eigenvalue tresh-hold
   EBREAK =  0.46E-09  absolut break condition
   DEPER  =   0.30     relativ break condition  

   TIME   =   0.40     timestep for ELM

  volume/ion in A,a.u.               =      26.22       176.91
  Fermi-wavevector in a.u.,A,eV,Ry     =   1.328212  2.509957 24.002693  1.764148
  Thomas-Fermi vector in A             =   2.457467
 
 Write flags
   LWAVE  =      F    write WAVECAR
   LCHARG =      F    write CHGCAR
   LVTOT  =      F    write LOCPOT, total local potential
   LVHAR  =      F    write LOCPOT, Hartree potential only
   LELF   =      F    write electronic localiz. function (ELF)
   LORBIT =      0    0 simple, 1 ext, 2 COOP (PROOUT)


 Dipole corrections
   LMONO  =      F    monopole corrections only (constant potential shift)
   LDIPOL =      F    correct potential (dipole corrections)
   IDIPOL =      0    1-x, 2-y, 3-z, 4-all directions 
   EPSILON=  1.0000000 bulk dielectric constant

 Exchange correlation treatment:
   GGA     =    --    GGA type
   LEXCH   =     2    internal setting for exchange type
   VOSKOWN=      0    Vosko Wilk Nusair interpolation
   LHFCALC =     F    Hartree Fock is set to
   LHFONE  =     F    Hartree Fock one center treatment
   AEXX    =    0.0000 exact exchange contribution

 Linear response parameters
   LEPSILON=     F    determine dielectric tensor
   LRPA    =     F    only Hartree local field effects (RPA)
   LNABLA  =     F    use nabla operator in PAW spheres
   LVEL    =     F    velocity operator in full k-point grid
   LINTERFAST=   F  fast interpolation
   KINTER  =     0    interpolate to denser k-point grid
   CSHIFT  =0.1000    complex shift for real part using Kramers Kronig
   OMEGAMAX=  -1.0    maximum frequency
   DEG_THRESHOLD= 0.2000000E-02 threshold for treating states as degnerate
   RTIME   =    0.100 relaxation time in fs

 Orbital magnetization related:
   ORBITALMAG=     F  switch on orbital magnetization
   LCHIMAG   =     F  perturbation theory with respect to B field
   DQ        =  0.001000  dq finite difference perturbation B field



--------------------------------------------------------------------------------------------------------


 conjugate gradient relaxation of ions
 charge density and potential will be updated during run
 non-spin polarized calculation
 Variant of blocked Davidson
 Davidson routine will perform the subspace rotation
 perform sub-space diagonalisation
    after iterative eigenvector-optimisation
 modified Broyden-mixing scheme, WC =      100.0
 initial mixing is a Kerker type mixing with AMIX =  0.4000 and BMIX =      1.0000
 Hartree-type preconditioning will be used
 using additional bands           91
 real space projection scheme for non local part
 use partial core corrections
 calculate Harris-corrections to forces 
   (improved forces if not selfconsistent)
 use of overlap-Matrix (Vanderbilt PP)
 Gauss-broadening in eV      SIGMA  =   0.01


--------------------------------------------------------------------------------------------------------


  energy-cutoff  :      500.00
  volume of cell :     1677.76
      direct lattice vectors                 reciprocal lattice vectors
    11.882558771  0.000000000  0.000000000     0.084156958  0.000000000  0.000000000
     0.000000000 11.882558771  0.000000000     0.000000000  0.084156958  0.000000000
     0.000000000  0.000000000 11.882558771     0.000000000  0.000000000  0.084156958

  length of vectors
    11.882558771 11.882558771 11.882558771     0.084156958  0.084156958  0.084156958


 
 k-points in units of 2pi/SCALE and weight: koint                                   
   0.00000000  0.00000000  0.00000000       0.037
   0.02805232  0.00000000  0.00000000       0.222
   0.02805232  0.02805232  0.00000000       0.444
   0.02805232  0.02805232  0.02805232       0.296
 
 k-points in reciprocal lattice and weights: koint                                   
   0.00000000  0.00000000  0.00000000       0.037
   0.33333333  0.00000000  0.00000000       0.222
   0.33333333  0.33333333  0.00000000       0.444
   0.33333333  0.33333333  0.33333333       0.296
 
 position of ions in fractional coordinates (direct lattice) 
   0.00000000  0.00000000  0.00000000
   0.50000000  0.00000000  0.00000000
   0.00000000  0.25000000  0.25000000
   0.50000000  0.25000000  0.25000000
   0.25000000  0.00000000  0.75000000
   0.75000000  0.00000000  0.75000000
   0.25000000  0.25000000  0.50000000
   0.75000000  0.25000000  0.50000000
   0.25000000  0.50000000  0.25000000
   0.75000000  0.50000000  0.25000000
   0.25000000  0.75000000  0.00000000
   0.75000000  0.75000000  0.00000000
   0.00000000  0.75000000  0.25000000
   0.50000000  0.75000000  0.25000000
   0.00000000  0.50000000  0.50000000
   0.50000000  0.50000000  0.50000000
   0.25000000  0.75000000  0.50000000
   0.75000000  0.75000000  0.50000000
   0.25000000  0.00000000  0.25000000
   0.75000000  0.00000000  0.25000000
   0.00000000  0.00000000  0.50000000
   0.50000000  0.00000000  0.50000000
   0.25000000  0.50000000  0.75000000
   0.75000000  0.50000000  0.75000000
   0.00000000  0.25000000  0.75000000
   0.50000000  0.25000000  0.75000000
   0.00000000  0.75000000  0.75000000
   0.50000000  0.75000000  0.75000000
   0.00000000  0.50000000  0.00000000
   0.50000000  0.50000000  0.00000000
   0.25000000  0.25000000  0.00000000
   0.75000000  0.25000000  0.00000000
   0.62500000  0.62500000  0.62500000
   0.12500000  0.62500000  0.62500000
   0.62500000  0.87500000  0.87500000
   0.12500000  0.87500000  0.87500000
   0.87500000  0.62500000  0.37500000
   0.37500000  0.62500000  0.37500000
   0.87500000  0.87500000  0.12500000
   0.37500000  0.87500000  0.12500000
   0.87500000  0.12500000  0.87500000
   0.37500000  0.12500000  0.87500000
   0.87500000  0.37500000  0.62500000
   0.37500000  0.37500000  0.62500000
   0.62500000  0.37500000  0.87500000
   0.12500000  0.37500000  0.87500000
   0.62500000  0.12500000  0.12500000
   0.12500000  0.12500000  0.12500000
   0.87500000  0.37500000  0.12500000
   0.37500000  0.37500000  0.12500000
   0.87500000  0.62500000  0.87500000
   0.37500000  0.62500000  0.87500000
   0.62500000  0.62500000  0.12500000
   0.12500000  0.62500000  0.12500000
   0.87500000  0.12500000  0.37500000
   0.37500000  0.12500000  0.37500000
   0.62500000  0.87500000  0.37500000
   0.12500000  0.87500000  0.37500000
   0.62500000  0.37500000  0.37500000
   0.12500000  0.37500000  0.37500000
   0.62500000  0.12500000  0.62500000
   0.12500000  0.12500000  0.62500000
   0.87500000  0.87500000  0.62500000
   0.37500000  0.87500000  0.62500000
 
 position of ions in cartesian coordinates  (Angst):
   0.00000000  0.00000000  0.00000000
   5.94127939  0.00000000  0.00000000
   0.00000000  2.97063969  2.97063969
   5.94127939  2.97063969  2.97063969
   2.97063969  0.00000000  8.91191908
   8.91191908  0.00000000  8.91191908
   2.97063969  2.97063969  5.94127939
   8.91191908  2.97063969  5.94127939
   2.97063969  5.94127939  2.97063969
   8.91191908  5.94127939  2.97063969
   2.97063969  8.91191908  0.00000000
   8.91191908  8.91191908  0.00000000
   0.00000000  8.91191908  2.97063969
   5.94127939  8.91191908  2.97063969
   0.00000000  5.94127939  5.94127939
   5.94127939  5.94127939  5.94127939
   2.97063969  8.91191908  5.94127939
   8.91191908  8.91191908  5.94127939
   2.97063969  0.00000000  2.97063969
   8.91191908  0.00000000  2.97063969
   0.00000000  0.00000000  5.94127939
   5.94127939  0.00000000  5.94127939
   2.97063969  5.94127939  8.91191908
   8.91191908  5.94127939  8.91191908
   0.00000000  2.97063969  8.91191908
   5.94127939  2.97063969  8.91191908
   0.00000000  8.91191908  8.91191908
   5.94127939  8.91191908  8.91191908
   0.00000000  5.94127939  0.00000000
   5.94127939  5.94127939  0.00000000
   2.97063969  2.97063969  0.00000000
   8.91191908  2.97063969  0.00000000
   7.42659923  7.42659923  7.42659923
   1.48531985  7.42659923  7.42659923
   7.42659923 10.39723892 10.39723892
   1.48531985 10.39723892 10.39723892
  10.39723892  7.42659923  4.45595954
   4.45595954  7.42659923  4.45595954
  10.39723892 10.39723892  1.48531985
   4.45595954 10.39723892  1.48531985
  10.39723892  1.48531985 10.39723892
   4.45595954  1.48531985 10.39723892
  10.39723892  4.45595954  7.42659923
   4.45595954  4.45595954  7.42659923
   7.42659923  4.45595954 10.39723892
   1.48531985  4.45595954 10.39723892
   7.42659923  1.48531985  1.48531985
   1.48531985  1.48531985  1.48531985
  10.39723892  4.45595954  1.48531985
   4.45595954  4.45595954  1.48531985
  10.39723892  7.42659923 10.39723892
   4.45595954  7.42659923 10.39723892
   7.42659923  7.42659923  1.48531985
   1.48531985  7.42659923  1.48531985
  10.39723892  1.48531985  4.45595954
   4.45595954  1.48531985  4.45595954
   7.42659923 10.39723892  4.45595954
   1.48531985 10.39723892  4.45595954
   7.42659923  4.45595954  4.45595954
   1.48531985  4.45595954  4.45595954
   7.42659923  1.48531985  7.42659923
   1.48531985  1.48531985  7.42659923
  10.39723892 10.39723892  7.42659923
   4.45595954 10.39723892  7.42659923
 


--------------------------------------------------------------------------------------------------------


 k-point  1 :   0.0000 0.0000 0.0000  plane waves:   42691
 k-point  2 :   0.3333 0.0000 0.0000  plane waves:   42607
 k-point  3 :   0.3333 0.3333 0.0000  plane waves:   42506
 k-point  4 :   0.3333 0.3333 0.3333  plane waves:   42607

 maximum and minimum number of plane-waves per node :     10705    10608

 maximum number of plane-waves:     42691
 maximum index in each direction: 
   IXMAX=   21   IYMAX=   21   IZMAX=   21
   IXMIN=  -21   IYMIN=  -21   IZMIN=  -21

 WARNING: aliasing errors must be expected set NGX to  86 to avoid them
 WARNING: aliasing errors must be expected set NGY to  86 to avoid them
 WARNING: aliasing errors must be expected set NGZ to  86 to avoid them
 aliasing errors are usually negligible using standard VASP settings
 and one can safely disregard these warnings

 real space projection operators:
  total allocation   :      16878.38 KBytes
  max/ min on nodes  :       4327.88       4111.31


 parallel 3D FFT for wavefunctions:
    minimum data exchange during FFTs selected (reduces bandwidth)
 parallel 3D FFT for charge:
    minimum data exchange during FFTs selected (reduces bandwidth)


 total amount of memory used by VASP on root node   107073. kBytes
========================================================================

   base      :      30000. kBytes
   nonlr-proj:       7624. kBytes
   fftplans  :       6054. kBytes
   grid      :       9092. kBytes
   one-center:        248. kBytes
   wavefun   :      54055. kBytes
 
     INWAV:  cpu time    0.0000: real time    0.0003
 Broyden mixing: mesh for mixing (old mesh)
   NGX = 43   NGY = 43   NGZ = 43
  (NGX  =140   NGY  =140   NGZ  =140)
  gives a total of  79507 points

 initial charge density was supplied:
 charge density of overlapping atoms calculated
 number of electron     896.0000000 magnetization 
 keeping initial charge density in first step


--------------------------------------------------------------------------------------------------------


 Maximum index for non-local projection operator          600
 Maximum index for augmentation-charges          465 (set IRDMAX)


--------------------------------------------------------------------------------------------------------


 First call to EWALD:  gamma=   0.149
 Maximum number of real-space cells 3x 3x 3
 Maximum number of reciprocal cells 3x 3x 3

 FEWALD executed in parallel
    FEWALD:  cpu time    0.0040: real time    0.0034


----------------------------------------- Iteration    1(   1)  ---------------------------------------


    POTLOK:  cpu time    0.0280: real time    0.0282
    SETDIJ:  cpu time    0.0110: real time    0.0135
     EDDAV:  cpu time   21.6477: real time   21.6642
       DOS:  cpu time    0.0020: real time    0.0013
    --------------------------------------------
      LOOP:  cpu time   21.6917: real time   21.7127

 eigenvalue-minimisations  :  5236
 total energy-change (2. order) : 0.1567563E+05  (-0.2804132E+05)
 number of electron     896.0000000 magnetization 
 augmentation part      896.0000000 magnetization 

 Free energy of the ion-electron system (eV)
  ---------------------------------------------------
  alpha Z        PSCENC =      4437.44972395
  Ewald energy   TEWEN  =    -82180.01078122
  -Hartree energ DENC   =    -50476.87986109
  -exchange      EXHF   =         0.00000000
  -V(xc)+E(xc)   XCENC  =      4065.45037299
  PAW double counting   =    118064.89290689  -146701.77456948
  entropy T*S    EENTRO =        -0.00000360
  eigenvalues    EBANDS =       315.75889523
  atomic energy  EATOM  =    168150.74136308
  Solvation  Ediel_sol  =         0.00000000
  ---------------------------------------------------
  free energy    TOTEN  =     15675.62804676 eV

  energy without entropy =    15675.62805036  energy(sigma->0) =    15675.62804856


--------------------------------------------------------------------------------------------------------




----------------------------------------- Iteration    1(   2)  ---------------------------------------


     EDDAV:  cpu time   23.0815: real time   23.0905
       DOS:  cpu time    0.0010: real time    0.0014
    --------------------------------------------
      LOOP:  cpu time   23.0855: real time   23.0949

 eigenvalue-minimisations  :  4522
 total energy-change (2. order) :-0.1182030E+05  (-0.1063974E+05)
 number of electron     896.0000000 magnetization 
 augmentation part      896.0000000 magnetization 

 Free energy of the ion-electron system (eV)
  ---------------------------------------------------
  alpha Z        PSCENC =      4437.44972395
  Ewald energy   TEWEN  =    -82180.01078122
  -Hartree energ DENC   =    -50476.87986109
  -exchange      EXHF   =         0.00000000
  -V(xc)+E(xc)   XCENC  =      4065.45037299
  PAW double counting   =    118064.89290689  -146701.77456948
  entropy T*S    EENTRO =        -0.00277276
  eigenvalues    EBANDS =    -11504.53429490
  atomic energy  EATOM  =    168150.74136308
  Solvation  Ediel_sol  =         0.00000000
  ---------------------------------------------------
  free energy    TOTEN  =      3855.33208746 eV

  energy without entropy =     3855.33486023  energy(sigma->0) =     3855.33347384


--------------------------------------------------------------------------------------------------------




----------------------------------------- Iteration    1(   3)  ---------------------------------------


     EDDAV:  cpu time   20.7308: real time   20.7384
       DOS:  cpu time    0.0010: real time    0.0013
    --------------------------------------------
      LOOP:  cpu time   20.7338: real time   20.7428

 eigenvalue-minimisations  :  4914
 total energy-change (2. order) :-0.3425693E+04  (-0.3271139E+04)
 number of electron     896.0000000 magnetization 
 augmentation part      896.0000000 magnetization 

 Free energy of the ion-electron system (eV)
  ---------------------------------------------------
  alpha Z        PSCENC =      4437.44972395
  Ewald energy   TEWEN  =    -82180.01078122
  -Hartree energ DENC   =    -50476.87986109
  -exchange      EXHF   =         0.00000000
  -V(xc)+E(xc)   XCENC  =      4065.45037299
  PAW double counting   =    118064.89290689  -146701.77456948
  entropy T*S    EENTRO =        -0.00200051
  eigenvalues    EBANDS =    -14930.22831288
  atomic energy  EATOM  =    168150.74136308
  Solvation  Ediel_sol  =         0.00000000
  ---------------------------------------------------
  free energy    TOTEN  =       429.63884173 eV

  energy without entropy =      429.64084225  energy(sigma->0) =      429.63984199


--------------------------------------------------------------------------------------------------------




----------------------------------------- Iteration    1(   4)  ---------------------------------------


     EDDAV:  cpu time   22.1566: real time   22.1601
       DOS:  cpu time    0.0010: real time    0.0003
    --------------------------------------------
      LOOP:  cpu time   22.1596: real time   22.1635

 eigenvalue-minimisations  :  5376
 total energy-change (2. order) :-0.6564913E+03  (-0.6003378E+03)
 number of electron     896.0000000 magnetization 
 augmentation part      896.0000000 magnetization 

 Free energy of the ion-electron system (eV)
  ---------------------------------------------------
  alpha Z        PSCENC =      4437.44972395
  Ewald energy   TEWEN  =    -82180.01078122
  -Hartree energ DENC   =    -50476.87986109
  -exchange      EXHF   =         0.00000000
  -V(xc)+E(xc)   XCENC  =      4065.45037299
  PAW double counting   =    118064.89290689  -146701.77456948
  entropy T*S    EENTRO =        -0.00000000
  eigenvalues    EBANDS =    -15586.72163148
  atomic energy  EATOM  =    168150.74136308
  Solvation  Ediel_sol  =         0.00000000
  ---------------------------------------------------
  free energy    TOTEN  =      -226.85247635 eV

  energy without entropy =     -226.85247635  energy(sigma->0) =     -226.85247635


--------------------------------------------------------------------------------------------------------




----------------------------------------- Iteration    1(   5)  ---------------------------------------


     EDDAV:  cpu time   21.5637: real time   21.5778
       DOS:  cpu time    0.0020: real time    0.0013
    CHARGE:  cpu time    0.8979: real time    0.8983
    MIXING:  cpu time    0.0050: real time    0.0047
    --------------------------------------------
      LOOP:  cpu time   22.4946: real time   22.5334

 eigenvalue-minimisations  :  5180
 total energy-change (2. order) :-0.7393582E+02  (-0.7126228E+02)
 number of electron     896.0004781 magnetization 
 augmentation part      543.0434527 magnetization 

 Broyden mixing:
  rms(total) = 0.19723E+01    rms(broyden)= 0.19723E+01
  rms(prec ) = 0.21869E+01
  weight for this iteration     100.00

 Free energy of the ion-electron system (eV)
  ---------------------------------------------------
  alpha Z        PSCENC =      4437.44972395
  Ewald energy   TEWEN  =    -82180.01078122
  -Hartree energ DENC   =    -50476.87986109
  -exchange      EXHF   =         0.00000000
  -V(xc)+E(xc)   XCENC  =      4065.45037299
  PAW double counting   =    118064.89290689  -146701.77456948
  entropy T*S    EENTRO =        -0.00041251
  eigenvalues    EBANDS =    -15660.65703513
  atomic energy  EATOM  =    168150.74136308
  Solvation  Ediel_sol  =         0.00000000
  ---------------------------------------------------
  free energy    TOTEN  =      -300.78829252 eV

  energy without entropy =     -300.78788000  energy(sigma->0) =     -300.78808626


--------------------------------------------------------------------------------------------------------




----------------------------------------- Iteration    1(   6)  ---------------------------------------


    POTLOK:  cpu time    0.0260: real time    0.0266
    SETDIJ:  cpu time    0.0100: real time    0.0106
     EDDAV:  cpu time   23.6694: real time   23.6721
       DOS:  cpu time    0.0010: real time    0.0013
    CHARGE:  cpu time    0.8899: real time    0.8907
    MIXING:  cpu time    0.0040: real time    0.0038
    --------------------------------------------
      LOOP:  cpu time   24.6023: real time   24.6089

 eigenvalue-minimisations  :  5796
 total energy-change (2. order) :-0.6689646E+00  (-0.4971596E+01)
 number of electron     896.0004785 magnetization 
 augmentation part      543.1503557 magnetization 

 Broyden mixing:
  rms(total) = 0.85805E+00    rms(broyden)= 0.85804E+00
  rms(prec ) = 0.10071E+01
  weight for this iteration     100.00

 eigenvalues of (default mixing * dielectric matrix)
  average eigenvalue GAMMA=   1.6242
  1.6242

 Free energy of the ion-electron system (eV)
  ---------------------------------------------------
  alpha Z        PSCENC =      4437.44972395
  Ewald energy   TEWEN  =    -82180.01078122
  -Hartree energ DENC   =    -50397.89151175
  -exchange      EXHF   =         0.00000000
  -V(xc)+E(xc)   XCENC  =      4059.41073610
  PAW double counting   =    124829.45793859  -153464.94072429
  entropy T*S    EENTRO =        -0.00056966
  eigenvalues    EBANDS =    -15735.67343188
  atomic energy  EATOM  =    168150.74136308
  Solvation  Ediel_sol  =         0.00000000
  ---------------------------------------------------
  free energy    TOTEN  =      -301.45725707 eV

  energy without entropy =     -301.45668742  energy(sigma->0) =     -301.45697225


--------------------------------------------------------------------------------------------------------




----------------------------------------- Iteration    1(   7)  ---------------------------------------


    POTLOK:  cpu time    0.0260: real time    0.0264
    SETDIJ:  cpu time    0.0110: real time    0.0107
     EDDAV:  cpu time   22.2426: real time   22.2492
       DOS:  cpu time    0.0010: real time    0.0013
    CHARGE:  cpu time    0.8939: real time    0.8935
    MIXING:  cpu time    0.0030: real time    0.0032
    --------------------------------------------
      LOOP:  cpu time   23.1815: real time   23.1881

 eigenvalue-minimisations  :  5376
 total energy-change (2. order) : 0.1007550E+01  (-0.6217241E+00)
 number of electron     896.0004782 magnetization 
 augmentation part      543.1206035 magnetization 

 Broyden mixing:
  rms(total) = 0.22913E+00    rms(broyden)= 0.22913E+00
  rms(prec ) = 0.27004E+00
  weight for this iteration     100.00

 eigenvalues of (default mixing * dielectric matrix)
  average eigenvalue GAMMA=   1.4207
  0.9296  1.9118

 Free energy of the ion-electron system (eV)
  ---------------------------------------------------
  alpha Z        PSCENC =      4437.44972395
  Ewald energy   TEWEN  =    -82180.01078122
  -Hartree energ DENC   =    -50455.09123026
  -exchange      EXHF   =         0.00000000
  -V(xc)+E(xc)   XCENC  =      4059.11771406
  PAW double counting   =    129996.96846985  -158708.20499706
  entropy T*S    EENTRO =        -0.00057134
  eigenvalues    EBANDS =    -15601.41939813
  atomic energy  EATOM  =    168150.74136308
  Solvation  Ediel_sol  =         0.00000000
  ---------------------------------------------------
  free energy    TOTEN  =      -300.44970706 eV

  energy without entropy =     -300.44913572  energy(sigma->0) =     -300.44942139


--------------------------------------------------------------------------------------------------------




----------------------------------------- Iteration    1(   8)  ---------------------------------------


    POTLOK:  cpu time    0.0250: real time    0.0264
    SETDIJ:  cpu time    0.0110: real time    0.0108
     EDDAV:  cpu time   21.3937: real time   21.4006
       DOS:  cpu time    0.0010: real time    0.0013
    CHARGE:  cpu time    0.8889: real time    0.8888
    MIXING:  cpu time    0.0040: real time    0.0034
    --------------------------------------------
      LOOP:  cpu time   22.3256: real time   22.3350

 eigenvalue-minimisations  :  5110
 total energy-change (2. order) : 0.3053391E-01  (-0.5074691E-01)
 number of electron     896.0004781 magnetization 
 augmentation part      543.0877380 magnetization 

 Broyden mixing:
  rms(total) = 0.12969E+00    rms(broyden)= 0.12969E+00
  rms(prec ) = 0.15107E+00
  weight for this iteration     100.00

 eigenvalues of (default mixing * dielectric matrix)
  average eigenvalue GAMMA=   1.7107
  2.5908  1.1323  1.4089

 Free energy of the ion-electron system (eV)
  ---------------------------------------------------
  alpha Z        PSCENC =      4437.44972395
  Ewald energy   TEWEN  =    -82180.01078122
  -Hartree energ DENC   =    -50451.95471914
  -exchange      EXHF   =         0.00000000
  -V(xc)+E(xc)   XCENC  =      4058.52652462
  PAW double counting   =    131103.36417818  -159819.51044432
  entropy T*S    EENTRO =        -0.00057134
  eigenvalues    EBANDS =    -15599.02444696
  atomic energy  EATOM  =    168150.74136308
  Solvation  Ediel_sol  =         0.00000000
  ---------------------------------------------------
  free energy    TOTEN  =      -300.41917315 eV

  energy without entropy =     -300.41860181  energy(sigma->0) =     -300.41888748


--------------------------------------------------------------------------------------------------------




----------------------------------------- Iteration    1(   9)  ---------------------------------------


    POTLOK:  cpu time    0.0260: real time    0.0264
    SETDIJ:  cpu time    0.0100: real time    0.0107
     EDDAV:  cpu time   24.1833: real time   24.1939
       DOS:  cpu time    0.0010: real time    0.0012
    CHARGE:  cpu time    0.8859: real time    0.8862
    MIXING:  cpu time    0.0040: real time    0.0035
    --------------------------------------------
      LOOP:  cpu time   25.1142: real time   25.1258

 eigenvalue-minimisations  :  5978
 total energy-change (2. order) : 0.1440886E-01  (-0.9043172E-02)
 number of electron     896.0004782 magnetization 
 augmentation part      543.1223980 magnetization 

 Broyden mixing:
  rms(total) = 0.40956E-01    rms(broyden)= 0.40955E-01
  rms(prec ) = 0.42768E-01
  weight for this iteration     100.00

 eigenvalues of (default mixing * dielectric matrix)
  average eigenvalue GAMMA=   1.5910
  2.4119  1.9478  1.0022  1.0022

 Free energy of the ion-electron system (eV)
  ---------------------------------------------------
  alpha Z        PSCENC =      4437.44972395
  Ewald energy   TEWEN  =    -82180.01078122
  -Hartree energ DENC   =    -50441.39155260
  -exchange      EXHF   =         0.00000000
  -V(xc)+E(xc)   XCENC  =      4057.68349523
  PAW double counting   =    132168.29553506  -160882.92731640
  entropy T*S    EENTRO =        -0.00057134
  eigenvalues    EBANDS =    -15610.24466005
  atomic energy  EATOM  =    168150.74136308
  Solvation  Ediel_sol  =         0.00000000
  ---------------------------------------------------
  free energy    TOTEN  =      -300.40476429 eV

  energy without entropy =     -300.40419295  energy(sigma->0) =     -300.40447862


--------------------------------------------------------------------------------------------------------




----------------------------------------- Iteration    1(  10)  ---------------------------------------


    POTLOK:  cpu time    0.0250: real time    0.0264
    SETDIJ:  cpu time    0.0110: real time    0.0107
     EDDAV:  cpu time   21.1108: real time   21.1217
       DOS:  cpu time    0.0010: real time    0.0012
    CHARGE:  cpu time    0.8839: real time    0.8842
    MIXING:  cpu time    0.0030: real time    0.0038
    --------------------------------------------
      LOOP:  cpu time   22.0377: real time   22.0517

 eigenvalue-minimisations  :  5026
 total energy-change (2. order) :-0.6544373E-03  (-0.1163750E-02)
 number of electron     896.0004782 magnetization 
 augmentation part      543.1010978 magnetization 

 Broyden mixing:
  rms(total) = 0.15163E-01    rms(broyden)= 0.15163E-01
  rms(prec ) = 0.17722E-01
  weight for this iteration     100.00

 eigenvalues of (default mixing * dielectric matrix)
  average eigenvalue GAMMA=   1.7518
  2.8120  2.5240  1.2368  1.2368  0.9495

 Free energy of the ion-electron system (eV)
  ---------------------------------------------------
  alpha Z        PSCENC =      4437.44972395
  Ewald energy   TEWEN  =    -82180.01078122
  -Hartree energ DENC   =    -50442.94738925
  -exchange      EXHF   =         0.00000000
  -V(xc)+E(xc)   XCENC  =      4057.81794068
  PAW double counting   =    131923.37563537  -160638.90427813
  entropy T*S    EENTRO =        -0.00057134
  eigenvalues    EBANDS =    -15607.92706186
  atomic energy  EATOM  =    168150.74136308
  Solvation  Ediel_sol  =         0.00000000
  ---------------------------------------------------
  free energy    TOTEN  =      -300.40541873 eV

  energy without entropy =     -300.40484739  energy(sigma->0) =     -300.40513306


--------------------------------------------------------------------------------------------------------




----------------------------------------- Iteration    1(  11)  ---------------------------------------


    POTLOK:  cpu time    0.0250: real time    0.0266
    SETDIJ:  cpu time    0.0120: real time    0.0110
     EDDAV:  cpu time   22.6306: real time   22.6511
       DOS:  cpu time    0.0010: real time    0.0013
    CHARGE:  cpu time    0.8859: real time    0.8864
    MIXING:  cpu time    0.0040: real time    0.0039
    --------------------------------------------
      LOOP:  cpu time   23.5614: real time   23.5844

 eigenvalue-minimisations  :  5488
 total energy-change (2. order) : 0.5117865E-04  (-0.1842747E-03)
 number of electron     896.0004782 magnetization 
 augmentation part      543.1018058 magnetization 

 Broyden mixing:
  rms(total) = 0.56167E-02    rms(broyden)= 0.56167E-02
  rms(prec ) = 0.57994E-02
  weight for this iteration     100.00

 eigenvalues of (default mixing * dielectric matrix)
  average eigenvalue GAMMA=   1.5676
  2.6233  2.1815  1.5279  1.0857  1.0857  0.9014

 Free energy of the ion-electron system (eV)
  ---------------------------------------------------
  alpha Z        PSCENC =      4437.44972395
  Ewald energy   TEWEN  =    -82180.01078122
  -Hartree energ DENC   =    -50447.44283233
  -exchange      EXHF   =         0.00000000
  -V(xc)+E(xc)   XCENC  =      4057.98265001
  PAW double counting   =    131849.25189453  -160566.61375667
  entropy T*S    EENTRO =        -0.00057134
  eigenvalues    EBANDS =    -15601.76305757
  atomic energy  EATOM  =    168150.74136308
  Solvation  Ediel_sol  =         0.00000000
  ---------------------------------------------------
  free energy    TOTEN  =      -300.40536755 eV

  energy without entropy =     -300.40479621  energy(sigma->0) =     -300.40508188


--------------------------------------------------------------------------------------------------------




----------------------------------------- Iteration    1(  12)  ---------------------------------------


    POTLOK:  cpu time    0.0260: real time    0.0265
    SETDIJ:  cpu time    0.0100: real time    0.0108
     EDDAV:  cpu time   23.5504: real time   23.5542
       DOS:  cpu time    0.0010: real time    0.0013
    CHARGE:  cpu time    0.8829: real time    0.8831
    MIXING:  cpu time    0.0040: real time    0.0041
    --------------------------------------------
      LOOP:  cpu time   24.4783: real time   24.4836

 eigenvalue-minimisations  :  5754
 total energy-change (2. order) : 0.1238062E-04  (-0.3035033E-04)
 number of electron     896.0004782 magnetization 
 augmentation part      543.1056190 magnetization 

 Broyden mixing:
  rms(total) = 0.14376E-02    rms(broyden)= 0.14376E-02
  rms(prec ) = 0.16112E-02
  weight for this iteration     100.00

 eigenvalues of (default mixing * dielectric matrix)
  average eigenvalue GAMMA=   1.7506
  2.9539  2.6728  1.9333  0.9550  1.1123  1.2179  1.4087

 Free energy of the ion-electron system (eV)
  ---------------------------------------------------
  alpha Z        PSCENC =      4437.44972395
  Ewald energy   TEWEN  =    -82180.01078122
  -Hartree energ DENC   =    -50447.15394847
  -exchange      EXHF   =         0.00000000
  -V(xc)+E(xc)   XCENC  =      4057.96359158
  PAW double counting   =    131876.26312888  -160593.15031173
  entropy T*S    EENTRO =        -0.00057134
  eigenvalues    EBANDS =    -15602.50754989
  atomic energy  EATOM  =    168150.74136308
  Solvation  Ediel_sol  =         0.00000000
  ---------------------------------------------------
  free energy    TOTEN  =      -300.40535517 eV

  energy without entropy =     -300.40478383  energy(sigma->0) =     -300.40506950


--------------------------------------------------------------------------------------------------------




----------------------------------------- Iteration    1(  13)  ---------------------------------------


    POTLOK:  cpu time    0.0260: real time    0.0263
    SETDIJ:  cpu time    0.0110: real time    0.0108
     EDDAV:  cpu time   23.3065: real time   23.3136
       DOS:  cpu time    0.0010: real time    0.0013
    CHARGE:  cpu time    0.8909: real time    0.8912
    MIXING:  cpu time    0.0050: real time    0.0043
    --------------------------------------------
      LOOP:  cpu time   24.2423: real time   24.2513

 eigenvalue-minimisations  :  5670
 total energy-change (2. order) :-0.7534371E-05  (-0.3293057E-05)
 number of electron     896.0004782 magnetization 
 augmentation part      543.1055182 magnetization 

 Broyden mixing:
  rms(total) = 0.39474E-03    rms(broyden)= 0.39474E-03
  rms(prec ) = 0.42334E-03
  weight for this iteration     100.00

 eigenvalues of (default mixing * dielectric matrix)
  average eigenvalue GAMMA=   1.6440
  2.9050  2.5989  1.9987  1.3776  1.3126  1.0499  0.9545  0.9545

 Free energy of the ion-electron system (eV)
  ---------------------------------------------------
  alpha Z        PSCENC =      4437.44972395
  Ewald energy   TEWEN  =    -82180.01078122
  -Hartree energ DENC   =    -50447.54115601
  -exchange      EXHF   =         0.00000000
  -V(xc)+E(xc)   XCENC  =      4057.97628638
  PAW double counting   =    131869.63838750  -160586.30342784
  entropy T*S    EENTRO =        -0.00057134
  eigenvalues    EBANDS =    -15602.35518721
  atomic energy  EATOM  =    168150.74136308
  Solvation  Ediel_sol  =         0.00000000
  ---------------------------------------------------
  free energy    TOTEN  =      -300.40536270 eV

  energy without entropy =     -300.40479136  energy(sigma->0) =     -300.40507703


--------------------------------------------------------------------------------------------------------




----------------------------------------- Iteration    1(  14)  ---------------------------------------


    POTLOK:  cpu time    0.0270: real time    0.0265
    SETDIJ:  cpu time    0.0100: real time    0.0108
     EDDAV:  cpu time   15.2137: real time   15.2239
       DOS:  cpu time    0.0010: real time    0.0013
    --------------------------------------------
      LOOP:  cpu time   15.2557: real time   15.2661

 eigenvalue-minimisations  :  3206
 total energy-change (2. order) : 0.7616472E-07  (-0.2068708E-06)
 number of electron     896.0004782 magnetization 
 augmentation part      543.1055182 magnetization 

 Free energy of the ion-electron system (eV)
  ---------------------------------------------------
  alpha Z        PSCENC =      4437.44972395
  Ewald energy   TEWEN  =    -82180.01078122
  -Hartree energ DENC   =    -50447.49898923
  -exchange      EXHF   =         0.00000000
  -V(xc)+E(xc)   XCENC  =      4057.97403986
  PAW double counting   =    131871.74871954  -160588.39266453
  entropy T*S    EENTRO =        -0.00057134
  eigenvalues    EBANDS =    -15602.41620274
  atomic energy  EATOM  =    168150.74136308
  Solvation  Ediel_sol  =         0.00000000
  ---------------------------------------------------
  free energy    TOTEN  =      -300.40536263 eV

  energy without entropy =     -300.40479129  energy(sigma->0) =     -300.40507696


--------------------------------------------------------------------------------------------------------




 average (electrostatic) potential at core
  the test charge radii are     1.0314  0.9962
  (the norm of the test charge is              1.0000)
       1 -69.3674       2 -69.3674       3 -69.3674       4 -69.3674       5 -69.3674
       6 -69.3674       7 -69.3674       8 -69.3674       9 -69.3674      10 -69.3674
      11 -69.3674      12 -69.3674      13 -69.3674      14 -69.3674      15 -69.3674
      16 -69.3674      17 -69.3674      18 -69.3674      19 -69.3674      20 -69.3674
      21 -69.3674      22 -69.3674      23 -69.3674      24 -69.3674      25 -69.3674
      26 -69.3674      27 -69.3674      28 -69.3674      29 -69.3674      30 -69.3674
      31 -69.3674      32 -69.3674      33 -40.8078      34 -40.8078      35 -40.8078
      36 -40.8078      37 -40.8078      38 -40.8078      39 -40.8078      40 -40.8078
      41 -40.8078      42 -40.8078      43 -40.8078      44 -40.8078      45 -40.8078
      46 -40.8078      47 -40.8078      48 -40.8078      49 -40.8078      50 -40.8078
      51 -40.8078      52 -40.8078      53 -40.8078      54 -40.8078      55 -40.8078
      56 -40.8078      57 -40.8078      58 -40.8078      59 -40.8078      60 -40.8078
      61 -40.8078      62 -40.8078      63 -40.8078      64 -40.8078
 
 
 
 E-fermi :   1.7939     XC(G=0):  -9.6131     alpha+bet : -7.7307


 k-point     1 :       0.0000    0.0000    0.0000
  band No.  band energies     occupation 
      1     -33.3940      2.00000
      2     -33.3940      2.00000
      3     -33.3939      2.00000
      4     -33.3937      2.00000
      5     -33.3937      2.00000
      6     -33.3937      2.00000
      7     -33.3937      2.00000
      8     -33.3937      2.00000
      9     -33.3937      2.00000
     10     -33.3935      2.00000
     11     -33.3935      2.00000
     12     -33.3935      2.00000
     13     -33.3934      2.00000
     14     -33.3934      2.00000
     15     -33.3934      2.00000
     16     -33.3934      2.00000
     17     -33.3934      2.00000
     18     -33.3934      2.00000
     19     -33.3934      2.00000
     20     -33.3934      2.00000
     21     -33.3934      2.00000
     22     -33.3934      2.00000
     23     -33.3934      2.00000
     24     -33.3934      2.00000
     25     -33.3934      2.00000
     26     -33.3934      2.00000
     27     -33.3934      2.00000
     28     -33.3934      2.00000
     29     -33.3934      2.00000
     30     -33.3934      2.00000
     31     -33.3934      2.00000
     32     -33.3933      2.00000
     33     -33.3933      2.00000
     34     -33.3933      2.00000
     35     -33.3932      2.00000
     36     -33.3932      2.00000
     37     -33.3932      2.00000
     38     -33.3932      2.00000
     39     -33.3932      2.00000
     40     -33.3932      2.00000
     41     -33.3932      2.00000
     42     -33.3932      2.00000
     43     -33.3932      2.00000
     44     -33.3932      2.00000
     45     -33.3932      2.00000
     46     -33.3932      2.00000
     47     -33.3932      2.00000
     48     -33.3932      2.00000
     49     -33.3932      2.00000
     50     -33.3931      2.00000
     51     -33.3931      2.00000
     52     -33.3931      2.00000
     53     -33.3931      2.00000
     54     -33.3931      2.00000
     55     -33.3931      2.00000
     56     -33.3931      2.00000
     57     -33.3931      2.00000
     58     -33.3931      2.00000
     59     -33.3931      2.00000
     60     -33.3931      2.00000
     61     -33.3931      2.00000
     62     -33.3931      2.00000
     63     -33.3931      2.00000
     64     -33.3931      2.00000
     65     -33.3931      2.00000
     66     -33.3931      2.00000
     67     -33.3931      2.00000
     68     -33.3931      2.00000
     69     -33.3931      2.00000
     70     -33.3931      2.00000
     71     -33.3931      2.00000
     72     -33.3931      2.00000
     73     -33.3931      2.00000
     74     -33.3931      2.00000
     75     -33.3931      2.00000
     76     -33.3931      2.00000
     77     -33.3931      2.00000
     78     -33.3931      2.00000
     79     -33.3931      2.00000
     80     -33.3931      2.00000
     81     -33.3931      2.00000
     82     -33.3931      2.00000
     83     -33.3931      2.00000
     84     -33.3931      2.00000
     85     -33.3926      2.00000
     86     -33.3926      2.00000
     87     -33.3926      2.00000
     88     -33.3926      2.00000
     89     -33.3926      2.00000
     90     -33.3926      2.00000
     91     -33.3926      2.00000
     92     -33.3926      2.00000
     93     -33.3926      2.00000
     94     -33.3926      2.00000
     95     -33.3926      2.00000
     96     -33.3926      2.00000
     97     -33.3877      2.00000
     98     -33.3877      2.00000
     99     -33.3877      2.00000
    100     -33.3876      2.00000
    101     -33.3876      2.00000
    102     -33.3876      2.00000
    103     -33.3876      2.00000
    104     -33.3876      2.00000
    105     -33.3876      2.00000
    106     -33.3875      2.00000
    107     -33.3875      2.00000
    108     -33.3875      2.00000
    109     -33.3875      2.00000
    110     -33.3875      2.00000
    111     -33.3875      2.00000
    112     -33.3875      2.00000
    113     -33.3875      2.00000
    114     -33.3874      2.00000
    115     -33.3874      2.00000
    116     -33.3874      2.00000
    117     -33.3874      2.00000
    118     -33.3874      2.00000
    119     -33.3874      2.00000
    120     -33.3874      2.00000
    121     -33.3874      2.00000
    122     -33.3874      2.00000
    123     -33.3874      2.00000
    124     -33.3874      2.00000
    125     -33.3874      2.00000
    126     -33.3874      2.00000
    127     -33.3874      2.00000
    128     -33.3874      2.00000
    129     -33.3874      2.00000
    130     -33.3874      2.00000
    131     -33.3874      2.00000
    132     -33.3874      2.00000
    133     -33.3874      2.00000
    134     -33.3874      2.00000
    135     -33.3874      2.00000
    136     -33.3874      2.00000
    137     -33.3874      2.00000
    138     -33.3874      2.00000
    139     -33.3874      2.00000
    140     -33.3874      2.00000
    141     -33.3874      2.00000
    142     -33.3874      2.00000
    143     -33.3874      2.00000
    144     -33.3874      2.00000
    145     -33.3874      2.00000
    146     -33.3873      2.00000
    147     -33.3873      2.00000
    148     -33.3873      2.00000
    149     -33.3873      2.00000
    150     -33.3873      2.00000
    151     -33.3873      2.00000
    152     -33.3872      2.00000
    153     -33.3872      2.00000
    154     -33.3872      2.00000
    155     -33.3872      2.00000
    156     -33.3872      2.00000
    157     -33.3872      2.00000
    158     -33.3870      2.00000
    159     -33.3870      2.00000
    160     -33.3870      2.00000
    161     -12.9868      2.00000
    162     -12.9868      2.00000
    163     -12.9868      2.00000
    164     -12.9782      2.00000
    165     -12.9782      2.00000
    166     -12.9782      2.00000
    167     -12.9782      2.00000
    168     -12.9782      2.00000
    169     -12.9782      2.00000
    170     -12.9650      2.00000
    171     -12.9649      2.00000
    172     -12.9649      2.00000
    173     -12.9649      2.00000
    174     -12.9642      2.00000
    175     -12.9642      2.00000
    176     -12.9642      2.00000
    177     -12.9642      2.00000
    178     -12.9642      2.00000
    179     -12.9642      2.00000
    180     -12.9642      2.00000
    181     -12.9642      2.00000
    182     -12.9642      2.00000
    183     -12.9642      2.00000
    184     -12.9642      2.00000
    185     -12.9642      2.00000
    186     -12.9579      2.00000
    187     -12.9579      2.00000
    188     -12.9579      2.00000
    189     -12.9578      2.00000
    190     -12.9578      2.00000
    191     -12.9578      2.00000
    192     -12.9241      2.00000
    193     -12.9241      2.00000
    194     -12.9241      2.00000
    195     -12.9125      2.00000
    196     -12.9125      2.00000
    197     -12.9125      2.00000
    198     -12.9125      2.00000
    199     -12.9125      2.00000
    200     -12.9125      2.00000
    201     -12.9125      2.00000
    202     -12.9125      2.00000
    203     -12.9103      2.00000
    204     -12.9103      2.00000
    205     -12.9103      2.00000
    206     -12.9103      2.00000
    207     -12.9103      2.00000
    208     -12.9103      2.00000
    209     -12.9103      2.00000
    210     -12.9103      2.00000
    211     -12.9103      2.00000
    212     -12.9103      2.00000
    213     -12.9103      2.00000
    214     -12.9103      2.00000
    215     -12.9101      2.00000
    216     -12.9101      2.00000
    217     -12.9101      2.00000
    218     -12.9101      2.00000
    219     -12.9101      2.00000
    220     -12.9101      2.00000
    221     -12.9100      2.00000
    222     -12.9100      2.00000
    223     -12.9100      2.00000
    224     -12.9100      2.00000
    225     -12.9100      2.00000
    226     -12.9100      2.00000
    227     -12.9094      2.00000
    228     -12.9094      2.00000
    229     -12.9094      2.00000
    230     -12.9094      2.00000
    231     -12.9094      2.00000
    232     -12.9094      2.00000
    233     -12.9094      2.00000
    234     -12.9094      2.00000
    235     -12.9094      2.00000
    236     -12.9094      2.00000
    237     -12.9094      2.00000
    238     -12.9094      2.00000
    239     -12.9063      2.00000
    240     -12.9063      2.00000
    241     -12.9063      2.00000
    242     -12.9063      2.00000
    243     -12.9063      2.00000
    244     -12.9063      2.00000
    245     -12.8976      2.00000
    246     -12.8976      2.00000
    247     -12.8976      2.00000
    248     -12.8975      2.00000
    249     -12.8975      2.00000
    250     -12.8975      2.00000
    251     -12.8956      2.00000
    252     -12.8956      2.00000
    253     -12.8956      2.00000
    254     -12.8955      2.00000
    255     -12.8955      2.00000
    256     -12.8955      2.00000
    257     -12.8889      2.00000
    258     -12.8889      2.00000
    259     -12.8889      2.00000
    260     -12.8816      2.00000
    261     -12.8816      2.00000
    262     -12.8816      2.00000
    263     -12.8816      2.00000
    264     -12.8816      2.00000
    265     -12.8816      2.00000
    266     -12.8816      2.00000
    267     -12.8816      2.00000
    268     -12.8816      2.00000
    269     -12.8816      2.00000
    270     -12.8816      2.00000
    271     -12.8816      2.00000
    272     -12.8765      2.00000
    273     -12.8765      2.00000
    274     -12.8765      2.00000
    275     -12.8765      2.00000
    276     -12.8765      2.00000
    277     -12.8765      2.00000
    278     -12.8765      2.00000
    279     -12.8765      2.00000
    280     -12.8765      2.00000
    281     -12.8764      2.00000
    282     -12.8764      2.00000
    283     -12.8764      2.00000
    284     -12.8756      2.00000
    285     -12.8756      2.00000
    286     -12.8752      2.00000
    287     -12.8752      2.00000
    288     -12.8752      2.00000
    289     -12.8752      2.00000
    290     -12.8752      2.00000
    291     -12.8752      2.00000
    292     -12.8752      2.00000
    293     -12.8752      2.00000
    294     -12.8752      2.00000
    295     -12.8752      2.00000
    296     -12.8752      2.00000
    297     -12.8752      2.00000
    298     -12.8734      2.00000
    299     -12.8734      2.00000
    300     -12.8734      2.00000
    301     -12.8734      2.00000
    302     -12.8734      2.00000
    303     -12.8734      2.00000
    304     -12.8734      2.00000
    305     -12.8734      2.00000
    306     -12.8730      2.00000
    307     -12.8730      2.00000
    308     -12.8730      2.00000
    309     -12.8730      2.00000
    310     -12.8730      2.00000
    311     -12.8730      2.00000
    312     -12.8719      2.00000
    313     -12.8719      2.00000
    314     -12.8719      2.00000
    315     -12.8719      2.00000
    316     -12.8719      2.00000
    317     -12.8719      2.00000
    318     -12.8682      2.00000
    319     -12.8682      2.00000
    320     -12.8682      2.00000
    321     -10.0121      2.00000
    322      -9.2754      2.00000
    323      -9.2754      2.00000
    324      -9.2754      2.00000
    325      -9.2754      2.00000
    326      -9.2754      2.00000
    327      -9.2754      2.00000
    328      -8.7403      2.00000
    329      -8.7403      2.00000
    330      -8.7403      2.00000
    331      -8.7403      2.00000
    332      -8.7403      2.00000
    333      -8.7403      2.00000
    334      -8.7403      2.00000
    335      -8.7403      2.00000
    336      -8.7403      2.00000
    337      -8.7403      2.00000
    338      -8.7403      2.00000
    339      -8.7403      2.00000
    340      -8.6699      2.00000
    341      -8.6699      2.00000
    342      -8.6699      2.00000
    343      -8.6699      2.00000
    344      -8.1160      2.00000
    345      -8.1160      2.00000
    346      -8.1160      2.00000
    347      -8.0854      2.00000
    348      -8.0854      2.00000
    349      -8.0854      2.00000
    350      -8.0854      2.00000
    351      -8.0854      2.00000
    352      -8.0854      2.00000
    353      -4.4468      2.00000
    354      -4.4468      2.00000
    355      -4.4468      2.00000
    356      -4.3137      2.00000
    357      -4.3137      2.00000
    358      -4.3137      2.00000
    359      -4.3137      2.00000
    360      -4.3137      2.00000
    361      -4.3137      2.00000
    362      -4.1791      2.00000
    363      -4.1791      2.00000
    364      -4.1791      2.00000
    365      -4.1791      2.00000
    366      -3.5106      2.00000
    367      -3.5106      2.00000
    368      -3.5106      2.00000
    369      -3.5106      2.00000
    370      -3.5106      2.00000
    371      -3.5106      2.00000
    372      -3.5106      2.00000
    373      -3.5106      2.00000
    374      -3.5106      2.00000
    375      -3.5106      2.00000
    376      -3.5106      2.00000
    377      -3.5106      2.00000
    378      -2.2992      2.00000
    379      -2.2992      2.00000
    380      -2.2992      2.00000
    381      -2.2992      2.00000
    382      -2.2992      2.00000
    383      -2.2992      2.00000
    384      -1.1261      2.00000
    385      -1.1261      2.00000
    386      -1.1261      2.00000
    387      -1.1261      2.00000
    388      -1.1261      2.00000
    389      -1.1261      2.00000
    390      -0.9988      2.00000
    391      -0.9988      2.00000
    392      -0.9988      2.00000
    393      -0.9988      2.00000
    394      -0.9988      2.00000
    395      -0.9988      2.00000
    396      -0.9988      2.00000
    397      -0.9988      2.00000
    398      -0.9988      2.00000
    399      -0.9988      2.00000
    400      -0.9988      2.00000
    401      -0.9988      2.00000
    402      -0.9420      2.00000
    403      -0.9420      2.00000
    404      -0.9420      2.00000
    405      -0.9420      2.00000
    406      -0.9420      2.00000
    407      -0.9420      2.00000
    408      -0.4175      2.00000
    409      -0.4175      2.00000
    410      -0.4175      2.00000
    411      -0.4175      2.00000
    412      -0.4175      2.00000
    413      -0.4175      2.00000
    414       0.4162      2.00000
    415       0.4162      2.00000
    416       0.4162      2.00000
    417       0.4162      2.00000
    418       0.4162      2.00000
    419       0.4162      2.00000
    420       0.4162      2.00000
    421       0.4162      2.00000
    422       0.4162      2.00000
    423       0.4162      2.00000
    424       0.4162      2.00000
    425       0.4162      2.00000
    426       0.7931      2.00000
    427       0.7931      2.00000
    428       0.7931      2.00000
    429       0.7931      2.00000
    430       0.7931      2.00000
    431       0.7931      2.00000
    432       0.7931      2.00000
    433       0.7931      2.00000
    434       0.7931      2.00000
    435       0.7931      2.00000
    436       0.7931      2.00000
    437       0.7931      2.00000
    438       0.8523      2.00000
    439       0.8523      2.00000
    440       0.8523      2.00000
    441       0.8523      2.00000
    442       0.8523      2.00000
    443       0.8523      2.00000
    444       0.8523      2.00000
    445       0.8523      2.00000
    446       1.0736      2.00000
    447       1.7909      1.33333
    448       1.7909      1.33333
    449       1.7909      1.33333
    450       2.2752      0.00000
    451       2.2752      0.00000
    452       2.2752      0.00000
    453       2.2752      0.00000
    454       3.3677      0.00000
    455       3.3677      0.00000
    456       3.3677      0.00000
    457       3.3744      0.00000
    458       3.3744      0.00000
    459       3.3744      0.00000
    460       3.7015      0.00000
    461       3.7015      0.00000
    462       3.7015      0.00000
    463       3.7015      0.00000
    464       3.7015      0.00000
    465       3.7015      0.00000
    466       4.0375      0.00000
    467       4.0375      0.00000
    468       4.0375      0.00000
    469       4.0375      0.00000
    470       4.0375      0.00000
    471       4.0375      0.00000
    472       4.0375      0.00000
    473       4.0375      0.00000
    474       4.0375      0.00000
    475       4.0375      0.00000
    476       4.0375      0.00000
    477       4.0375      0.00000
    478       4.5244      0.00000
    479       4.5244      0.00000
    480       4.5244      0.00000
    481       4.5244      0.00000
    482       4.5244      0.00000
    483       4.5244      0.00000
    484       5.4101      0.00000
    485       5.4101      0.00000
    486       5.4101      0.00000
    487       5.6344      0.00000
    488       5.6344      0.00000
    489       5.6344      0.00000
    490       5.6344      0.00000
    491       5.6344      0.00000
    492       5.6344      0.00000
    493       6.2921      0.00000
    494       6.2921      0.00000
    495       6.2921      0.00000
    496       6.2921      0.00000
    497       6.2921      0.00000
    498       6.2921      0.00000
    499       6.2921      0.00000
    500       6.2921      0.00000
    501       6.3156      0.00000
    502       6.3156      0.00000
    503       6.3156      0.00000
    504       6.3156      0.00000
    505       6.3156      0.00000
    506       6.3157      0.00000
    507       6.6088      0.00000
    508       6.6089      0.00000
    509       6.6092      0.00000
    510       6.6096      0.00000
    511       6.6103      0.00000
    512       6.6107      0.00000
    513       6.8939      0.00000
    514       6.8939      0.00000
    515       6.8940      0.00000
    516       6.8946      0.00000
    517       6.8962      0.00000
    518       6.8971      0.00000
    519       6.8979      0.00000
    520       6.8981      0.00000
    521       6.9004      0.00000
    522       6.9023      0.00000
    523       6.9086      0.00000
[...]
 -0.000   0.000   0.000  -0.000   0.004   0.000  -0.000  -0.000   0.000   0.008  -0.000  -0.000  -0.000   0.000   0.000   0.000
  0.000   0.000   0.000  -0.000   0.000   0.000  -0.000   0.000   0.000  -0.000   1.512   0.018  -0.000  -0.000  -0.000  -0.000
  0.000   0.000   0.000  -0.000   0.000  -0.000  -0.000   0.000  -0.000  -0.000   0.018   0.001  -0.000   0.000   0.000   0.000
 -0.000  -0.000  -0.000   0.011   0.000   0.000   0.000  -0.000   0.114  -0.000   0.000  -0.000   0.768   0.000  -0.000   0.011
  0.011   0.000  -0.000  -0.000  -0.000   0.114  -0.000   0.000  -0.000  -0.000  -0.000   0.000   0.000   0.768   0.000  -0.000
 -0.000   0.011   0.000  -0.000   0.000  -0.000   0.114   0.000   0.000   0.000  -0.000   0.000   0.000   0.000   0.768  -0.000
  0.000   0.000   0.000   0.001   0.000   0.000   0.000   0.000   0.002  -0.000   0.000   0.000   0.011  -0.000  -0.000   0.000
  0.001  -0.000   0.000   0.000  -0.000   0.002   0.000  -0.000   0.000   0.000  -0.000  -0.000   0.000   0.011   0.000  -0.000
  0.000   0.001  -0.000   0.000   0.000  -0.000   0.002   0.000   0.000   0.000  -0.000  -0.000  -0.000  -0.000   0.011   0.000


------------------------ aborting loop because EDIFF is reached ----------------------------------------


    CHARGE:  cpu time    0.9918: real time    0.9932
    FORLOC:  cpu time    0.0340: real time    0.0335
    FORNL :  cpu time    3.4315: real time    3.4327
    STRESS:  cpu time   10.0745: real time   10.0765
    FORCOR:  cpu time    0.0560: real time    0.0565
    FORHAR:  cpu time    0.0530: real time    0.0531
    MIXING:  cpu time    0.0040: real time    0.0047
    OFIELD:  cpu time    0.0010: real time    0.0004

  FORCE on cell =-STRESS in cart. coord.  units (eV):
  Direction    XX          YY          ZZ          XY          YZ          ZX
  --------------------------------------------------------------------------------------
  Alpha Z  4437.44972  4437.44972  4437.44972
  Ewald  -27393.50840-27393.50840-27393.50840    -0.00000    -0.00000    -0.00000
  Hartree 16815.82696 16815.82696 16815.82696    -0.00000    -0.00000    -0.00000
  E(xc)   -5201.75813 -5201.75813 -5201.75813     0.00000     0.00000    -0.00000
  Local    3455.65435  3455.65435  3455.65435     0.00000     0.00000     0.00000
  n-local   573.15503   576.61252   573.92737    -3.79786    -1.55562    -1.55562
  augment  2950.77629  2950.77629  2950.77629    -0.00000    -0.00000     0.00000
  Kinetic  4268.39000  4277.50517  4269.62696    -9.19109    -3.94026    -3.94026
  Fock        0.00000     0.00000     0.00000     0.00000     0.00000     0.00000
  -------------------------------------------------------------------------------------
  Total     -89.15353   -89.15353   -89.15353    -0.00000    -0.00000    -0.00000
  in kB     -85.13717   -85.13717   -85.13717    -0.00000    -0.00000    -0.00000
  external pressure =      -85.14 kB  Pullay stress =        0.00 kB


 VOLUME and BASIS-vectors are now :
 -----------------------------------------------------------------------------
  energy-cutoff  :      500.00
  volume of cell :     1677.76
      direct lattice vectors                 reciprocal lattice vectors
    11.882558771  0.000000000  0.000000000     0.084156958  0.000000000  0.000000000
     0.000000000 11.882558771  0.000000000     0.000000000  0.084156958  0.000000000
     0.000000000  0.000000000 11.882558771     0.000000000  0.000000000  0.084156958

  length of vectors
    11.882558771 11.882558771 11.882558771     0.084156958  0.084156958  0.084156958


 FORCES acting on ions
    electron-ion (+dipol)            ewald-force                    non-local-force                 convergence-correction
 -----------------------------------------------------------------------------------------------
   0.825E-13 -.885E-13 0.311E-13   0.213E-12 0.176E-12 0.426E-13   -.185E-16 0.632E-17 -.816E-17   -.358E-12 -.145E-11 -.151E-11
   0.202E-11 -.127E-12 0.858E-11   0.199E-12 0.924E-13 -.142E-13   -.141E-17 0.119E-17 -.751E-17   0.341E-12 -.494E-12 -.763E-12
   0.312E-12 0.969E-12 0.803E-12   0.218E-12 0.959E-13 0.240E-12   -.504E-17 0.702E-17 -.150E-16   0.414E-12 0.115E-12 -.168E-11
   0.203E-11 -.108E-10 -.366E-11   0.176E-12 0.391E-13 0.675E-13   -.239E-16 0.881E-17 -.900E-17   -.253E-12 0.884E-12 -.144E-11
   0.860E-12 -.747E-13 0.451E-11   0.199E-12 0.853E-13 0.284E-12   -.186E-16 0.781E-17 -.680E-17   -.887E-12 -.711E-12 0.416E-13
   0.296E-11 -.271E-13 0.657E-11   0.256E-12 0.153E-12 0.117E-12   0.217E-18 0.632E-17 -.101E-16   0.975E-12 -.968E-12 -.228E-12
   0.936E-12 0.366E-11 0.320E-11   0.195E-12 0.199E-12 0.746E-13   -.171E-16 0.653E-17 -.140E-16   0.211E-12 -.254E-12 0.126E-11
   0.297E-11 0.206E-11 -.856E-12   0.281E-12 0.163E-12 0.195E-13   -.101E-16 -.637E-17 -.366E-16   -.105E-12 -.245E-12 0.201E-11
   0.939E-12 0.222E-11 0.247E-11   0.139E-12 0.604E-13 0.142E-13   0.488E-17 0.260E-17 -.219E-16   0.618E-12 0.852E-12 -.137E-11
   0.289E-11 -.382E-11 0.101E-10   0.252E-12 0.131E-12 0.160E-13   -.151E-16 -.168E-17 -.190E-18   -.593E-12 0.182E-11 -.178E-11
   0.860E-12 0.940E-11 -.323E-12   0.195E-12 0.231E-12 0.142E-12   -.829E-17 -.352E-18 -.158E-16   -.984E-12 -.795E-12 -.315E-12
   0.304E-11 -.599E-11 0.144E-11   0.234E-12 0.622E-13 0.924E-13   -.194E-16 0.610E-17 -.783E-17   0.115E-11 -.127E-11 -.348E-12
   0.795E-13 0.324E-11 0.940E-12   0.171E-12 0.234E-12 -.213E-13   -.151E-16 -.157E-17 0.103E-16   -.736E-12 -.725E-12 -.135E-11
   0.187E-11 -.366E-11 -.642E-13   0.178E-12 0.639E-13 0.426E-13   -.108E-18 -.653E-17 -.102E-16   0.764E-12 -.155E-11 -.509E-12
   0.308E-12 0.210E-11 0.216E-11   0.192E-12 -.320E-13 -.746E-13   0.228E-17 -.153E-16 -.246E-16   -.479E-12 0.121E-11 0.118E-11
   0.195E-11 -.271E-11 -.610E-11   0.238E-12 0.199E-12 -.131E-12   -.323E-16 0.169E-16 -.892E-17   0.623E-12 0.103E-11 -.254E-13
   0.109E-11 -.139E-11 0.370E-11   0.171E-12 0.341E-12 -.284E-13   -.153E-16 -.229E-16 -.201E-16   -.175E-12 -.347E-12 0.468E-12
   0.281E-11 -.324E-10 0.193E-10   0.213E-12 0.281E-12 0.178E-13   -.295E-16 0.469E-17 0.290E-17   0.132E-12 -.524E-12 0.300E-12
   0.939E-12 -.219E-13 -.286E-11   0.149E-12 0.252E-12 0.000E+00   -.102E-16 0.149E-16 -.120E-16   -.187E-12 -.135E-11 -.842E-12
   0.289E-11 -.676E-13 -.892E-11   0.252E-12 0.233E-12 0.153E-12   -.721E-17 -.634E-17 -.136E-16   0.212E-12 -.260E-11 -.953E-12
   0.160E-12 -.425E-13 0.198E-11   0.227E-12 0.131E-12 0.139E-12   -.965E-17 0.158E-16 -.577E-17   -.415E-12 -.191E-11 0.181E-11
   0.195E-11 -.119E-12 -.526E-11   0.199E-12 0.199E-12 -.284E-13   0.146E-17 -.908E-17 -.235E-16   0.383E-12 -.150E-11 0.108E-11
   0.936E-12 0.164E-11 -.868E-12   0.206E-12 0.171E-12 0.533E-13   -.134E-16 0.233E-17 -.223E-16   -.454E-12 0.251E-12 0.444E-12
   0.296E-11 0.642E-11 -.196E-10   0.217E-12 0.149E-12 -.178E-14   -.137E-16 0.195E-17 -.198E-16   0.706E-12 0.345E-12 0.403E-12
   0.478E-14 0.110E-11 0.303E-11   0.224E-12 0.171E-12 0.355E-14   -.200E-16 -.450E-17 -.183E-16   -.507E-12 -.512E-12 0.871E-12
   0.180E-11 -.204E-11 -.161E-11   0.217E-12 0.114E-12 -.533E-13   -.101E-16 0.120E-16 -.150E-16   0.563E-12 -.196E-12 0.373E-12
   0.658E-14 0.319E-11 0.305E-11   0.156E-12 0.252E-12 -.178E-13   -.257E-16 0.115E-16 -.903E-17   -.755E-12 -.168E-12 0.298E-12
   0.187E-11 0.376E-11 0.107E-10   0.199E-12 0.199E-12 -.853E-13   -.208E-16 -.109E-16 -.767E-17   0.655E-12 -.544E-12 -.715E-12
   0.538E-14 0.194E-11 0.543E-13   0.187E-12 0.426E-13 0.149E-12   -.667E-17 -.131E-16 -.412E-17   -.724E-12 0.758E-12 -.929E-12
   0.179E-11 -.330E-11 0.223E-11   0.172E-12 0.924E-13 0.163E-12   -.618E-17 -.293E-17 -.234E-16   0.723E-12 0.242E-13 0.172E-12
   0.109E-11 -.168E-11 0.112E-11   0.201E-12 0.924E-13 0.213E-13   -.168E-16 0.271E-17 -.314E-16   -.203E-12 0.232E-12 -.754E-12
   0.281E-11 -.209E-10 0.135E-11   0.240E-12 0.924E-13 0.190E-12   -.183E-16 -.167E-16 -.182E-16   0.197E-12 0.477E-12 -.175E-11
   -.195E-06 -.195E-06 -.161E-07   0.426E-13 -.284E-13 0.392E-13   0.266E-17 -.115E-18 0.190E-17   0.672E-12 0.699E-12 -.578E-12
   -.195E-06 -.195E-06 -.161E-07   0.284E-13 -.284E-13 0.156E-12   -.328E-17 0.657E-18 0.718E-18   -.163E-11 0.115E-11 0.101E-11
   -.195E-06 -.195E-06 -.161E-07   0.568E-13 0.995E-13 -.128E-12   -.152E-17 -.881E-19 -.291E-18   0.124E-11 -.650E-12 0.216E-12
   -.195E-06 -.195E-06 -.161E-07   0.711E-13 -.711E-13 -.711E-13   -.179E-17 0.305E-18 0.366E-18   -.219E-11 -.676E-12 0.574E-12
   -.195E-06 -.195E-06 -.161E-07   -.127E-12 -.568E-13 -.178E-13   -.569E-18 0.253E-17 0.237E-17   -.169E-11 0.157E-11 0.622E-12
   -.195E-06 -.195E-06 -.161E-07   -.129E-12 0.568E-13 -.156E-12   -.800E-18 0.536E-17 0.318E-17   0.530E-12 0.466E-12 0.164E-12
   -.195E-06 -.195E-06 -.161E-07   -.105E-12 -.117E-12 0.999E-14   0.178E-17 -.364E-17 0.610E-18   -.375E-12 -.199E-11 -.204E-11
   -.195E-06 -.195E-06 -.161E-07   -.639E-13 -.117E-12 -.184E-13   -.115E-17 -.203E-19 0.144E-17   -.571E-12 -.151E-11 -.907E-12
   -.195E-06 -.195E-06 -.161E-07   -.141E-12 -.142E-12 -.746E-13   0.431E-17 0.473E-17 0.495E-17   -.361E-12 -.665E-12 0.769E-13
   -.195E-06 -.195E-06 -.161E-07   -.856E-13 -.199E-12 -.711E-13   -.121E-17 -.312E-18 0.169E-18   -.519E-12 0.749E-13 0.432E-12
   -.195E-06 -.195E-06 -.161E-07   -.125E-12 -.159E-12 0.996E-13   -.678E-18 0.271E-17 -.102E-18   -.896E-12 0.101E-11 0.204E-11
   -.195E-06 -.195E-06 -.161E-07   -.702E-13 -.455E-13 0.427E-13   0.271E-17 -.483E-17 0.218E-17   -.167E-12 0.376E-12 0.721E-12
   -.195E-06 -.195E-06 -.161E-07   -.188E-12 -.140E-12 -.782E-13   -.138E-17 -.506E-17 0.222E-17   0.422E-12 0.492E-12 0.100E-11
   -.195E-06 -.195E-06 -.161E-07   -.220E-12 -.140E-12 -.782E-13   0.320E-17 0.309E-17 0.518E-17   -.159E-11 0.620E-12 0.107E-11
   -.195E-06 -.195E-06 -.161E-07   -.131E-12 -.888E-13 -.136E-12   -.111E-17 0.360E-17 0.157E-17   -.353E-12 -.163E-12 -.257E-11
   -.195E-06 -.195E-06 -.161E-07   -.192E-12 -.146E-12 -.752E-13   0.144E-17 -.111E-17 0.121E-17   -.854E-12 -.638E-12 -.222E-11
   -.195E-06 -.194E-06 -.161E-07   -.219E-12 -.119E-12 -.342E-12   0.379E-17 0.786E-18 0.289E-17   -.932E-12 0.209E-11 -.308E-11
   -.195E-06 -.195E-06 -.161E-07   -.221E-12 -.176E-12 -.171E-12   0.112E-17 -.129E-18 0.409E-17   0.179E-13 0.139E-11 -.158E-11
   -.195E-06 -.195E-06 -.161E-07   -.262E-12 -.711E-13 0.284E-13   -.152E-17 0.134E-17 0.416E-17   -.370E-12 0.467E-12 0.941E-12
   -.195E-06 -.195E-06 -.161E-07   -.249E-12 -.995E-13 -.284E-13   0.133E-17 0.146E-17 0.264E-17   -.728E-12 -.216E-12 0.115E-11
   -.195E-06 -.195E-06 -.161E-07   -.398E-12 -.203E-12 -.966E-13   0.339E-17 -.141E-17 0.505E-17   0.345E-12 -.598E-13 -.857E-12
   -.195E-06 -.195E-06 -.161E-07   -.412E-12 -.146E-12 -.433E-13   0.840E-18 0.188E-17 0.623E-18   -.131E-11 0.567E-12 -.183E-11
   -.195E-06 -.195E-06 -.161E-07   -.119E-12 -.167E-12 0.178E-13   0.627E-17 -.400E-18 0.228E-17   -.358E-12 -.177E-11 0.193E-11
   -.195E-06 -.195E-06 -.161E-07   -.107E-12 -.227E-12 -.426E-13   -.596E-18 0.342E-17 0.163E-18   -.548E-12 -.630E-12 0.143E-11
   -.195E-06 -.195E-06 -.161E-07   -.256E-12 -.114E-12 0.000E+00   0.301E-17 0.136E-17 0.404E-17   0.310E-12 -.248E-11 0.131E-11
   -.195E-06 -.195E-06 -.161E-07   -.341E-12 -.171E-12 -.568E-13   -.306E-17 -.210E-18 0.103E-17   -.120E-11 -.124E-11 0.141E-11
   -.195E-06 -.195E-06 -.161E-07   -.359E-12 -.173E-12 -.426E-13   0.407E-18 0.157E-17 0.474E-18   -.958E-12 0.240E-11 0.579E-12
   -.195E-06 -.195E-06 -.161E-07   -.391E-12 -.119E-12 0.142E-13   0.100E-17 -.242E-17 -.718E-18   -.161E-12 0.117E-11 0.852E-12
   -.195E-06 -.195E-06 -.161E-07   -.242E-12 -.995E-13 -.746E-13   -.206E-17 0.644E-18 0.581E-17   0.196E-12 -.942E-12 0.146E-11
   -.195E-06 -.195E-06 -.161E-07   -.298E-12 -.426E-13 0.427E-13   -.949E-18 -.167E-17 0.290E-17   -.117E-11 -.112E-11 0.171E-11
   -.195E-06 -.194E-06 -.161E-07   -.355E-12 -.185E-12 0.709E-13   -.432E-17 -.258E-17 0.138E-17   -.545E-12 -.885E-12 0.826E-12
   -.195E-06 -.195E-06 -.161E-07   -.355E-12 -.185E-12 0.993E-13   -.154E-17 0.596E-18 0.543E-17   -.465E-12 -.559E-12 0.277E-13
 -----------------------------------------------------------------------------------------------
   -.622E-05 -.622E-05 -.516E-06   0.601E-12 0.115E-11 0.405E-12   -.390E-15 0.292E-16 -.358E-15   -.153E-10 -.118E-10 -.657E-12
 
 
 POSITION                                       TOTAL-FORCE (eV/Angst)
 -----------------------------------------------------------------------------------
      0.00000      0.00000      0.00000        -0.000000     -0.000000     -0.000000
      5.94128      0.00000      0.00000        -0.000000     -0.000000     -0.000000
      0.00000      2.97064      2.97064        -0.000000     -0.000000     -0.000000
      5.94128      2.97064      2.97064        -0.000000     -0.000000     -0.000000
      2.97064      0.00000      8.91192        -0.000000     -0.000000     -0.000000
      8.91192      0.00000      8.91192        -0.000000     -0.000000     -0.000000
      2.97064      2.97064      5.94128        -0.000000     -0.000000     -0.000000
      8.91192      2.97064      5.94128        -0.000000     -0.000000     -0.000000
      2.97064      5.94128      2.97064        -0.000000     -0.000000     -0.000000
      8.91192      5.94128      2.97064        -0.000000     -0.000000     -0.000000
      2.97064      8.91192      0.00000        -0.000000     -0.000000     -0.000000
      8.91192      8.91192      0.00000        -0.000000     -0.000000     -0.000000
      0.00000      8.91192      2.97064        -0.000000     -0.000000     -0.000000
      5.94128      8.91192      2.97064        -0.000000     -0.000000     -0.000000
      0.00000      5.94128      5.94128        -0.000000     -0.000000     -0.000000
      5.94128      5.94128      5.94128        -0.000000     -0.000000     -0.000000
      2.97064      8.91192      5.94128        -0.000000     -0.000000     -0.000000
      8.91192      8.91192      5.94128        -0.000000     -0.000000     -0.000000
      2.97064      0.00000      2.97064        -0.000000     -0.000000     -0.000000
      8.91192      0.00000      2.97064        -0.000000     -0.000000     -0.000000
      0.00000      0.00000      5.94128        -0.000000     -0.000000     -0.000000
      5.94128      0.00000      5.94128        -0.000000     -0.000000     -0.000000
      2.97064      5.94128      8.91192        -0.000000     -0.000000     -0.000000
      8.91192      5.94128      8.91192        -0.000000     -0.000000     -0.000000
      0.00000      2.97064      8.91192        -0.000000     -0.000000     -0.000000
      5.94128      2.97064      8.91192        -0.000000     -0.000000     -0.000000
      0.00000      8.91192      8.91192        -0.000000     -0.000000     -0.000000
      5.94128      8.91192      8.91192        -0.000000     -0.000000     -0.000000
      0.00000      5.94128      0.00000        -0.000000     -0.000000     -0.000000
      5.94128      5.94128      0.00000        -0.000000     -0.000000     -0.000000
      2.97064      2.97064      0.00000        -0.000000     -0.000000     -0.000000
      8.91192      2.97064      0.00000        -0.000000     -0.000000     -0.000000
      7.42660      7.42660      7.42660         0.000000      0.000000     -0.000000
      1.48532      7.42660      7.42660         0.000000     -0.000000     -0.000000
      7.42660     10.39724     10.39724        -0.000000      0.000000      0.000000
      1.48532     10.39724     10.39724         0.000000     -0.000000      0.000000
     10.39724      7.42660      4.45596         0.000000      0.000000     -0.000000
      4.45596      7.42660      4.45596         0.000000     -0.000000      0.000000
     10.39724     10.39724      1.48532         0.000000     -0.000000      0.000000
      4.45596     10.39724      1.48532         0.000000      0.000000      0.000000
     10.39724      1.48532     10.39724        -0.000000      0.000000      0.000000
      4.45596      1.48532     10.39724         0.000000     -0.000000      0.000000
     10.39724      4.45596      7.42660         0.000000     -0.000000      0.000000
      4.45596      4.45596      7.42660         0.000000      0.000000      0.000000
      7.42660      4.45596     10.39724         0.000000     -0.000000      0.000000
      1.48532      4.45596     10.39724        -0.000000      0.000000      0.000000
      7.42660      1.48532      1.48532         0.000000      0.000000      0.000000
      1.48532      1.48532      1.48532        -0.000000     -0.000000      0.000000
     10.39724      4.45596      1.48532         0.000000      0.000000      0.000000
      4.45596      4.45596      1.48532         0.000000     -0.000000      0.000000
     10.39724      7.42660     10.39724         0.000000     -0.000000      0.000000
      4.45596      7.42660     10.39724        -0.000000      0.000000      0.000000
      7.42660      7.42660      1.48532         0.000000     -0.000000      0.000000
      1.48532      7.42660      1.48532        -0.000000      0.000000      0.000000
     10.39724      1.48532      4.45596         0.000000     -0.000000      0.000000
      4.45596      1.48532      4.45596         0.000000      0.000000     -0.000000
      7.42660     10.39724      4.45596         0.000000     -0.000000      0.000000
      1.48532     10.39724      4.45596         0.000000     -0.000000     -0.000000
      7.42660      4.45596      4.45596         0.000000      0.000000     -0.000000
      1.48532      4.45596      4.45596         0.000000     -0.000000      0.000000
      7.42660      1.48532      7.42660         0.000000     -0.000000     -0.000000
      1.48532      1.48532      7.42660         0.000000      0.000000     -0.000000
     10.39724     10.39724      7.42660         0.000000      0.000000     -0.000000
      4.45596     10.39724      7.42660         0.000000     -0.000000     -0.000000
 -----------------------------------------------------------------------------------
    total drift:                               -0.000006     -0.000006     -0.000001


--------------------------------------------------------------------------------------------------------



  FREE ENERGIE OF THE ION-ELECTRON SYSTEM (eV)
  ---------------------------------------------------
  free  energy   TOTEN  =      -300.40536263 eV

  energy  without entropy=     -300.40479129  energy(sigma->0) =     -300.40507696
 


--------------------------------------------------------------------------------------------------------


    POTLOK:  cpu time    0.0430: real time    0.0431


--------------------------------------------------------------------------------------------------------




--------------------------------------------------------------------------------------------------------


  
 reached required accuracy - stopping structural energy minimisation
     LOOP+:  cpu time  329.7149: real time  329.9040
    4ORBIT:  cpu time    0.0000: real time    0.0000

 total amount of memory used by VASP on root node   107073. kBytes
========================================================================

   base      :      30000. kBytes
   nonlr-proj:       7624. kBytes
   fftplans  :       6054. kBytes
   grid      :       9092. kBytes
   one-center:        248. kBytes
   wavefun   :      54055. kBytes
 
  
  
 General timing and accounting informations for this job:
 ========================================================
  
                  Total CPU time used (sec):      340.232
                            User time (sec):      333.862
                          System time (sec):        6.370
                         Elapsed time (sec):      340.680
  
                   Maximum memory used (kb):      142140.
                   Average memory used (kb):           0.
  
                          Minor page faults:      2595798
                          Major page faults:            6
                 Voluntary context switches:         2522
