 vasp.5.4.1 05Feb16 (build Aug 18 2016 13:20:29) complex                        
  
 executed on           IFC91_ompi date 2018.05.31  17:32:35
 running on   28 total cores
 distrk:  each k-point on   28 cores,    1 groups
 distr:  one band on NCORES_PER_BAND=   4 cores,    7 groups


--------------------------------------------------------------------------------------------------------


 INCAR:
 POTCAR:    PAW Ga_d 06Jul2010                    
 POTCAR:    PAW Sb 04Feb1998                      
 POTCAR:    PAW Ga_d 06Jul2010                    
   VRHFIN =Ga: s2p1                                                             
   LEXCH  = CA                                                                  
   EATOM  =  2154.4592 eV,  158.3483 Ry                                         
                                                                                
   TITEL  = PAW Ga_d 06Jul2010                                                  
   LULTRA =        F    use ultrasoft PP ?                                      
   IUNSCR =        1    unscreen: 0-lin 1-nonlin 2-no                           
   RPACOR =    1.700    partial core radius                                     
   POMASS =   69.723; ZVAL   =   13.000    mass and valenz                      
   RCORE  =    2.300    outmost cutoff radius                                   
   RWIGS  =    2.300; RWIGS  =    1.217    wigner-seitz radius (au A)           
   ENMAX  =  282.829; ENMIN  =  212.121 eV                                      
   ICORE  =        3    local potential                                         
   LCOR   =        T    correct aug charges                                     
   LPAW   =        T    paw PP                                                  
   EAUG   =  490.690                                                            
   DEXC   =    0.000                                                            
   RMAX   =    2.341    core radius for proj-oper                               
   RAUG   =    1.300    factor for augmentation sphere                          
   RDEP   =    2.413    radius for radial grids                                 
   RDEPT  =    1.856    core radius for aug-charge                              
                                                                                
   Atomic configuration                                                         
    9 entries                                                                   
     n  l   j            E        occ.                                          
     1  0  0.50    -10177.9539   2.0000                                         
     2  0  0.50     -1257.0037   2.0000                                         
     2  1  1.50     -1096.5304   6.0000                                         
     3  0  0.50      -147.0449   2.0000                                         
     3  1  1.50       -98.5146   6.0000                                         
     3  2  2.50       -19.4350  10.0000                                         
     4  0  0.50        -9.1573   2.0000                                         
     4  1  0.50        -2.7399   1.0000                                         
     4  3  2.50        -2.7416   0.0000                                         
   Description                                                                  
     l       E           TYP  RCUT    TYP  RCUT                                 
     2    -19.4350265     23  2.300                                             
     2     -5.4423304     23  2.300                                             
     0     -9.1573136     23  2.300                                             
     0     68.0291300     23  2.300                                             
     1     -2.7399180     23  2.100                                             
     1     81.6349560     23  2.300                                             
     3      6.8029130     23  2.300                                             
  local pseudopotential read in
  partial core-charges read in
  partial kinetic energy density read in
  atomic valenz-charges read in
  non local Contribution for L=           2  read in
    real space projection operators read in
  non local Contribution for L=           2  read in
    real space projection operators read in
  non local Contribution for L=           0  read in
    real space projection operators read in
  non local Contribution for L=           0  read in
    real space projection operators read in
  non local Contribution for L=           1  read in
    real space projection operators read in
  non local Contribution for L=           1  read in
    real space projection operators read in
    PAW grid and wavefunctions read in
 
   number of l-projection  operators is LMAX  =           6
   number of lm-projection operators is LMMAX =          18
 
 POTCAR:    PAW Sb 04Feb1998                      
   VRHFIN =Sb: s2p3                                                             
   LEXCH  = CA                                                                  
   EATOM  =   151.6886 eV,   11.1488 Ry                                         
                                                                                
   TITEL  = PAW Sb 04Feb1998                                                    
   LULTRA =        F    use ultrasoft PP ?                                      
   IUNSCR =        1    unscreen: 0-lin 1-nonlin 2-no                           
   RPACOR =    2.200    partial core radius                                     
   POMASS =  121.750; ZVAL   =    5.000    mass and valenz                      
   RCORE  =    2.300    outmost cutoff radius                                   
   RWIGS  =    2.980; RWIGS  =    1.577    wigner-seitz radius (au A)           
   ENMAX  =  172.301; ENMIN  =  129.225 eV                                      
   ICORE  =        3    local potential                                         
   LCOR   =        T    correct aug charges                                     
   LPAW   =        T    paw PP                                                  
   EAUG   =  380.513                                                            
   DEXC   =    0.000                                                            
   RMAX   =    2.346    core radius for proj-oper                               
   RAUG   =    1.300    factor for augmentation sphere                          
   RDEP   =    2.360    radius for radial grids                                 
   RDEPT  =    2.192    core radius for aug-charge                              
                                                                                
   Atomic configuration                                                         
   13 entries                                                                   
     n  l   j            E        occ.                                          
     1  0  0.50    -30122.7615   2.0000                                         
     2  0  0.50     -4589.8142   2.0000                                         
     2  1  1.50     -4127.1422   6.0000                                         
     3  0  0.50      -899.7775   2.0000                                         
     3  1  1.50      -748.3452   6.0000                                         
     3  2  2.50      -515.7446  10.0000                                         
     4  0  0.50      -148.0021   2.0000                                         
     4  1  1.50      -101.4181   6.0000                                         
     4  2  2.50       -33.6010  10.0000                                         
     5  0  0.50       -13.0519   2.0000                                         
     5  1  0.50        -4.9988   3.0000                                         
     5  2  1.50        -5.4423   0.0000                                         
     4  3  2.50        -5.4423   0.0000                                         
   Description                                                                  
     l       E           TYP  RCUT    TYP  RCUT                                 
     0    -13.0518574     23  2.300                                             
     0     13.6058260     23  2.300                                             
     1     -4.9988158     23  2.300                                             
     1     -0.9808453     23  2.300                                             
     2     -5.4423304     23  2.300                                             
     3     -1.3605826     23  2.300                                             
  local pseudopotential read in
  partial core-charges read in
  partial kinetic energy density read in
  atomic valenz-charges read in
  non local Contribution for L=           0  read in
    real space projection operators read in
  non local Contribution for L=           0  read in
    real space projection operators read in
  non local Contribution for L=           1  read in
    real space projection operators read in
  non local Contribution for L=           1  read in
    real space projection operators read in
  non local Contribution for L=           2  read in
    real space projection operators read in
    PAW grid and wavefunctions read in
 
   number of l-projection  operators is LMAX  =           5
   number of lm-projection operators is LMMAX =          13
 
 Optimization of the real space projectors (new method)

 maximal supplied QI-value         = 16.25
 optimisation between [QCUT,QGAM] = [ 11.38, 22.75] = [ 36.24,144.96] Ry 
 Optimized for a Real-space Cutoff    1.35 Angstroem

   l    n(q)    QCUT    max X(q) W(low)/X(q) W(high)/X(q)  e(spline) 
   2      8    11.376     7.160    0.23E-03    0.28E-03    0.13E-06
   2      8    11.376     5.555    0.49E-03    0.56E-03    0.20E-06
   0      9    11.376    12.310    0.60E-04    0.47E-04    0.22E-07
   0      9    11.376     6.591    0.12E-03    0.98E-04    0.49E-07
   1      9    11.376     7.817    0.22E-03    0.30E-03    0.14E-06
   1      9    11.376     2.416    0.19E-03    0.26E-03    0.13E-06
 Optimization of the real space projectors (new method)

 maximal supplied QI-value         = 16.25
 optimisation between [QCUT,QGAM] = [ 11.38, 22.75] = [ 36.24,144.96] Ry 
 Optimized for a Real-space Cutoff    1.27 Angstroem

   l    n(q)    QCUT    max X(q) W(low)/X(q) W(high)/X(q)  e(spline) 
   0      9    11.376    19.057    0.14E-03    0.22E-03    0.90E-07
   0      9    11.376     8.980    0.17E-03    0.27E-03    0.11E-06
   1      8    11.376   126.129    0.44E-03    0.10E-03    0.17E-06
   1      8    11.376    80.918    0.43E-03    0.10E-03    0.16E-06
   2      8    11.376     7.212    0.12E-03    0.22E-03    0.44E-07
  PAW Ga_d 06Jul2010                    :
 energy of atom  1       EATOM=-2154.4592
 kinetic energy error for atom=    0.0027 (will be added to EATOM!!)
  PAW Sb 04Feb1998                      :
 energy of atom  2       EATOM= -151.6886
 kinetic energy error for atom=    0.0005 (will be added to EATOM!!)
 
 
 POSCAR: POSCAR with -8.23987132543              
  positions in direct lattice
  No initial velocities read in
 exchange correlation table for  LEXCH =        2
   RHO(1)=    0.500       N(1)  =     2000
   RHO(2)=  100.500       N(2)  =     4000
 


--------------------------------------------------------------------------------------------------------


 ion  position               nearest neighbor table
   1  0.000  0.000  0.000-  36 2.64  39 2.64  41 2.64  48 2.64
   2  0.500  0.000  0.000-  35 2.64  40 2.64  42 2.64  47 2.64
   3  0.000  0.250  0.250-  48 2.64  49 2.64  55 2.64  60 2.64
   4  0.500  0.250  0.250-  47 2.64  50 2.64  56 2.64  59 2.64
   5  0.250  0.000  0.750-  36 2.64  42 2.64  62 2.64  64 2.64
   6  0.750  0.000  0.750-  35 2.64  41 2.64  61 2.64  63 2.64
   7  0.250  0.250  0.500-  44 2.64  56 2.64  60 2.64  62 2.64
   8  0.750  0.250  0.500-  43 2.64  55 2.64  59 2.64  61 2.64
   9  0.250  0.500  0.250-  38 2.64  50 2.64  54 2.64  60 2.64
  10  0.750  0.500  0.250-  37 2.64  49 2.64  53 2.64  59 2.64
  11  0.250  0.750  0.000-  36 2.64  40 2.64  52 2.64  54 2.64
  12  0.750  0.750  0.000-  35 2.64  39 2.64  51 2.64  53 2.64
  13  0.000  0.750  0.250-  37 2.64  39 2.64  54 2.64  58 2.64
  14  0.500  0.750  0.250-  38 2.64  40 2.64  53 2.64  57 2.64
  15  0.000  0.500  0.500-  34 2.64  37 2.64  43 2.64  60 2.64
  16  0.500  0.500  0.500-  33 2.64  38 2.64  44 2.64  59 2.64
  17  0.250  0.750  0.500-  34 2.64  38 2.64  58 2.64  64 2.64
  18  0.750  0.750  0.500-  33 2.64  37 2.64  57 2.64  63 2.64
  19  0.250  0.000  0.250-  40 2.64  48 2.64  56 2.64  58 2.64
  20  0.750  0.000  0.250-  39 2.64  47 2.64  55 2.64  57 2.64
  21  0.000  0.000  0.500-  55 2.64  58 2.64  62 2.64  63 2.64
  22  0.500  0.000  0.500-  56 2.64  57 2.64  61 2.64  64 2.64
  23  0.250  0.500  0.750-  34 2.64  44 2.64  46 2.64  52 2.64
  24  0.750  0.500  0.750-  33 2.64  43 2.64  45 2.64  51 2.64
  25  0.000  0.250  0.750-  41 2.64  43 2.64  46 2.64  62 2.64
  26  0.500  0.250  0.750-  42 2.64  44 2.64  45 2.64  61 2.64
  27  0.000  0.750  0.750-  34 2.64  36 2.64  51 2.64  63 2.64
  28  0.500  0.750  0.750-  33 2.64  35 2.64  52 2.64  64 2.64
  29  0.000  0.500  0.000-  46 2.64  49 2.64  51 2.64  54 2.64
  30  0.500  0.500  0.000-  45 2.64  50 2.64  52 2.64  53 2.64
  31  0.250  0.250  0.000-  42 2.64  46 2.64  48 2.64  50 2.64
  32  0.750  0.250  0.000-  41 2.64  45 2.64  47 2.64  49 2.64
  33  0.625  0.625  0.625-  16 2.64  18 2.64  24 2.64  28 2.64
  34  0.125  0.625  0.625-  15 2.64  17 2.64  23 2.64  27 2.64
  35  0.625  0.875  0.875-   2 2.64   6 2.64  12 2.64  28 2.64
  36  0.125  0.875  0.875-   1 2.64   5 2.64  11 2.64  27 2.64
  37  0.875  0.625  0.375-  10 2.64  13 2.64  15 2.64  18 2.64
  38  0.375  0.625  0.375-   9 2.64  14 2.64  16 2.64  17 2.64
  39  0.875  0.875  0.125-   1 2.64  12 2.64  13 2.64  20 2.64
  40  0.375  0.875  0.125-   2 2.64  11 2.64  14 2.64  19 2.64
  41  0.875  0.125  0.875-   1 2.64   6 2.64  25 2.64  32 2.64
  42  0.375  0.125  0.875-   2 2.64   5 2.64  26 2.64  31 2.64
  43  0.875  0.375  0.625-   8 2.64  15 2.64  24 2.64  25 2.64
  44  0.375  0.375  0.625-   7 2.64  16 2.64  23 2.64  26 2.64
  45  0.625  0.375  0.875-  24 2.64  26 2.64  30 2.64  32 2.64
  46  0.125  0.375  0.875-  23 2.64  25 2.64  29 2.64  31 2.64
  47  0.625  0.125  0.125-   2 2.64   4 2.64  20 2.64  32 2.64
  48  0.125  0.125  0.125-   1 2.64   3 2.64  19 2.64  31 2.64
  49  0.875  0.375  0.125-   3 2.64  10 2.64  29 2.64  32 2.64
  50  0.375  0.375  0.125-   4 2.64   9 2.64  30 2.64  31 2.64
  51  0.875  0.625  0.875-  12 2.64  24 2.64  27 2.64  29 2.64
  52  0.375  0.625  0.875-  11 2.64  23 2.64  28 2.64  30 2.64
  53  0.625  0.625  0.125-  10 2.64  12 2.64  14 2.64  30 2.64
  54  0.125  0.625  0.125-   9 2.64  11 2.64  13 2.64  29 2.64
  55  0.875  0.125  0.375-   3 2.64   8 2.64  20 2.64  21 2.64
  56  0.375  0.125  0.375-   4 2.64   7 2.64  19 2.64  22 2.64
  57  0.625  0.875  0.375-  14 2.64  18 2.64  20 2.64  22 2.64
  58  0.125  0.875  0.375-  13 2.64  17 2.64  19 2.64  21 2.64
  59  0.625  0.375  0.375-   4 2.64   8 2.64  10 2.64  16 2.64
  60  0.125  0.375  0.375-   3 2.64   7 2.64   9 2.64  15 2.64
  61  0.625  0.125  0.625-   6 2.64   8 2.64  22 2.64  26 2.64
  62  0.125  0.125  0.625-   5 2.64   7 2.64  21 2.64  25 2.64
  63  0.875  0.875  0.625-   6 2.64  18 2.64  21 2.64  27 2.64
  64  0.375  0.875  0.625-   5 2.64  17 2.64  22 2.64  28 2.64
 
  LATTYP: Found a simple cubic cell.
 ALAT       =    12.1844873428
  
  Lattice vectors:
  
 A1 = (  12.1844873428,   0.0000000000,   0.0000000000)
 A2 = (   0.0000000000,  12.1844873428,   0.0000000000)
 A3 = (   0.0000000000,   0.0000000000,  12.1844873428)


Analysis of symmetry for initial positions (statically):
=====================================================================
 Subroutine PRICEL returns following result:
 
  LATTYP: Found a face centered cubic cell.
 ALAT       =     6.0922436714
  
  Lattice vectors:
  
 A1 = (   3.0461218357,   3.0461218357,  -0.0000000000)
 A2 = (   3.0461218357,   0.0000000000,  -3.0461218357)
 A3 = (   0.0000000000,   3.0461218357,  -3.0461218357)
 
  32 primitive cells build up your supercell.
 

 Routine SETGRP: Setting up the symmetry group for a 
 simple cubic supercell.


 Subroutine GETGRP returns: Found 24 space group operations
 (whereof 24 operations were pure point group operations)
 out of a pool of 48 trial point group operations.


The static configuration has the point symmetry T_d .


Analysis of symmetry for dynamics (positions and initial velocities):
=====================================================================
 Subroutine PRICEL returns following result:
 
  LATTYP: Found a face centered cubic cell.
 ALAT       =     6.0922436714
  
  Lattice vectors:
  
 A1 = (   3.0461218357,   3.0461218357,  -0.0000000000)
 A2 = (   3.0461218357,   0.0000000000,  -3.0461218357)
 A3 = (   0.0000000000,   3.0461218357,  -3.0461218357)
 
  32 primitive cells build up your supercell.
 

 Routine SETGRP: Setting up the symmetry group for a 
 simple cubic supercell.


 Subroutine GETGRP returns: Found 24 space group operations
 (whereof 24 operations were pure point group operations)
 out of a pool of 48 trial point group operations.


The dynamic configuration has the point symmetry T_d .


 Subroutine INISYM returns: Found 24 space group operations
 (whereof 24 operations are pure point group operations),
 and found    32 'primitive' translations

 
 
 KPOINTS: koint                                   

Automatic generation of k-mesh.
Space group operators:
 irot       det(A)        alpha          n_x          n_y          n_z        tau_x        tau_y        tau_z
    1     1.000000     0.000000     1.000000     0.000000     0.000000     0.000000     0.000000     0.000000
    2     1.000000   120.000000    -0.577350    -0.577350    -0.577350     0.000000     0.000000     0.000000
    3     1.000000   120.000000     0.577350     0.577350     0.577350     0.000000     0.000000     0.000000
    4    -1.000000    90.000000     0.000000     0.000000    -1.000000     0.000000     0.000000     0.000000
    5    -1.000000   180.000000     0.000000     0.707107     0.707107     0.000000     0.000000     0.000000
    6    -1.000000    90.000000     0.000000     1.000000     0.000000     0.000000     0.000000     0.000000
    7     1.000000   180.000000     0.000000     0.000000     1.000000     0.000000     0.000000     0.000000
    8     1.000000   120.000000    -0.577350     0.577350     0.577350     0.000000     0.000000     0.000000
    9     1.000000   120.000000    -0.577350     0.577350    -0.577350     0.000000     0.000000     0.000000
   10    -1.000000    90.000000     0.000000     0.000000     1.000000     0.000000     0.000000     0.000000
   11    -1.000000    90.000000    -1.000000     0.000000     0.000000     0.000000     0.000000     0.000000
   12    -1.000000   180.000000     0.707107     0.000000     0.707107     0.000000     0.000000     0.000000
   13     1.000000   120.000000     0.577350    -0.577350     0.577350     0.000000     0.000000     0.000000
   14     1.000000   120.000000    -0.577350    -0.577350     0.577350     0.000000     0.000000     0.000000
   15     1.000000   180.000000     1.000000     0.000000     0.000000     0.000000     0.000000     0.000000
   16    -1.000000    90.000000     0.000000    -1.000000     0.000000     0.000000     0.000000     0.000000
   17    -1.000000   180.000000     0.707107     0.707107     0.000000     0.000000     0.000000     0.000000
   18    -1.000000    90.000000     1.000000     0.000000     0.000000     0.000000     0.000000     0.000000
   19     1.000000   120.000000     0.577350    -0.577350    -0.577350     0.000000     0.000000     0.000000
   20     1.000000   180.000000     0.000000     1.000000     0.000000     0.000000     0.000000     0.000000
   21     1.000000   120.000000     0.577350     0.577350    -0.577350     0.000000     0.000000     0.000000
   22    -1.000000   180.000000     0.000000    -0.707107     0.707107     0.000000     0.000000     0.000000
   23    -1.000000   180.000000     0.707107    -0.707107     0.000000     0.000000     0.000000     0.000000
   24    -1.000000   180.000000     0.707107     0.000000    -0.707107     0.000000     0.000000     0.000000
 
 Subroutine IBZKPT returns following result:
 ===========================================
 
 Found      4 irreducible k-points:
 
 Following reciprocal coordinates:
            Coordinates               Weight
  0.000000  0.000000  0.000000      1.000000
  0.333333  0.000000  0.000000      6.000000
  0.333333  0.333333  0.000000     12.000000
  0.333333  0.333333  0.333333      8.000000
 
 Following cartesian coordinates:
            Coordinates               Weight
  0.000000  0.000000  0.000000      1.000000
  0.027357  0.000000  0.000000      6.000000
  0.027357  0.027357  0.000000     12.000000
  0.027357  0.027357  0.027357      8.000000
 


--------------------------------------------------------------------------------------------------------




 Dimension of arrays:
   k-points           NKPTS =      4   k-points in BZ     NKDIM =      4   number of bands    NBANDS=    350
   number of dos      NEDOS =    301   number of ions     NIONS =     64
   non local maximal  LDIM  =      6   non local SUM 2l+1 LMDIM =     18
   total plane-waves  NPLWV = 343000
   max r-space proj   IRMAX =   2001   max aug-charges    IRDMAX=  10721
   dimension x,y,z NGX =    70 NGY =   70 NGZ =   70
   dimension x,y,z NGXF=   140 NGYF=  140 NGZF=  140
   support grid    NGXF=   140 NGYF=  140 NGZF=  140
   ions per type =              32  32
 NGX,Y,Z   is equivalent  to a cutoff of   9.55,  9.55,  9.55 a.u.
 NGXF,Y,Z  is equivalent  to a cutoff of  19.10, 19.10, 19.10 a.u.


 I would recommend the setting:
   dimension x,y,z NGX =    67 NGY =   67 NGZ =   67
 SYSTEM =  GaAsSb_x=25                             
 POSCAR =  POSCAR with -8.23987132543              

 Startparameter for this run:
   NWRITE =      2    write-flag & timer
   PREC   = normal    normal or accurate (medium, high low for compatibility)
   ISTART =      0    job   : 0-new  1-cont  2-samecut
   ICHARG =      2    charge: 1-file 2-atom 10-const
   ISPIN  =      1    spin polarized calculation?
   LNONCOLLINEAR =      F non collinear calculations
   LSORBIT =      F    spin-orbit coupling
   INIWAV =      1    electr: 0-lowe 1-rand  2-diag
   LASPH  =      F    aspherical Exc in radial PAW
   METAGGA=      F    non-selfconsistent MetaGGA calc.

 Electronic Relaxation 1
   ENCUT  =  500.0 eV  36.75 Ry    6.06 a.u.  22.22 22.22 22.22*2*pi/ulx,y,z
   ENINI  =  500.0     initial cutoff
   ENAUG  =  490.7 eV  augmentation charge cutoff
   NELM   =     60;   NELMIN=  2; NELMDL= -5     # of ELM steps 
   EDIFF  = 0.1E-05   stopping-criterion for ELM
   LREAL  =      T    real-space projection
   NLSPLINE    = F    spline interpolate recip. space projectors
   LCOMPAT=      F    compatible to vasp.4.4
   GGA_COMPAT  = T    GGA compatible to vasp.4.4-vasp.4.6
   LMAXPAW     = -100 max onsite density
   LMAXMIX     =    2 max onsite mixed and CHGCAR
   VOSKOWN=      0    Vosko Wilk Nusair interpolation
   ROPT   =   -0.00050  -0.00050
 Ionic relaxation
   EDIFFG = -.2E-01   stopping-criterion for IOM
   NSW    =    100    number of steps for IOM
   NBLOCK =      1;   KBLOCK =    100    inner block; outer block 
   IBRION =      2    ionic relax: 0-MD 1-quasi-New 2-CG
   NFREE  =      1    steps in history (QN), initial steepest desc. (CG)
   ISIF   =      3    stress and relaxation
   IWAVPR =     11    prediction:  0-non 1-charg 2-wave 3-comb
   ISYM   =      2    0-nonsym 1-usesym 2-fastsym
   LCORR  =      T    Harris-Foulkes like correction to forces

   POTIM  = 0.5000    time-step for ionic-motion
   TEIN   =    0.0    initial temperature
   TEBEG  =    0.0;   TEEND  =   0.0 temperature during run
   SMASS  =  -3.00    Nose mass-parameter (am)
   estimated Nose-frequenzy (Omega)   =  0.10E-29 period in steps =****** mass=  -0.339E-26a.u.
   SCALEE = 1.0000    scale energy and forces
   NPACO  =    256;   APACO  = 16.0  distance and # of slots for P.C.
   PSTRESS=    0.0 pullay stress

  Mass of Ions in am
   POMASS =  69.72121.75
  Ionic Valenz
   ZVAL   =  13.00  5.00
  Atomic Wigner-Seitz radii
   RWIGS  =  -1.00 -1.00
  virtual crystal weights 
   VCA    =   1.00  1.00
   NELECT =     576.0000    total number of electrons
   NUPDOWN=      -1.0000    fix difference up-down

 DOS related values:
   EMIN   =  10.00;   EMAX   =-10.00  energy-range for DOS
   EFERMI =   0.00
   ISMEAR =     0;   SIGMA  =   0.01  broadening in eV -4-tet -1-fermi 0-gaus

 Electronic relaxation 2 (details)
   IALGO  =     38    algorithm
   LDIAG  =      T    sub-space diagonalisation (order eigenvalues)
   LSUBROT=      F    optimize rotation matrix (better conditioning)
   TURBO    =      0    0=normal 1=particle mesh
   IRESTART =      0    0=no restart 2=restart with 2 vectors
   NREBOOT  =      0    no. of reboots
   NMIN     =      0    reboot dimension
   EREF     =   0.00    reference energy to select bands
   IMIX   =      4    mixing-type and parameters
     AMIX     =   0.40;   BMIX     =  1.00
     AMIX_MAG =   1.60;   BMIX_MAG =  1.00
     AMIN     =   0.10
     WC   =   100.;   INIMIX=   1;  MIXPRE=   1;  MAXMIX= -45

 Intra band minimization:
   WEIMIN = 0.0010     energy-eigenvalue tresh-hold
   EBREAK =  0.71E-09  absolut break condition
   DEPER  =   0.30     relativ break condition  

   TIME   =   0.40     timestep for ELM

  volume/ion in A,a.u.               =      28.26       190.74
  Fermi-wavevector in a.u.,A,eV,Ry     =   1.117914  2.112551 17.003632  1.249732
  Thomas-Fermi vector in A             =   2.254541
 
 Write flags
   LWAVE  =      F    write WAVECAR
   LCHARG =      F    write CHGCAR
   LVTOT  =      F    write LOCPOT, total local potential
   LVHAR  =      F    write LOCPOT, Hartree potential only
   LELF   =      F    write electronic localiz. function (ELF)
   LORBIT =      0    0 simple, 1 ext, 2 COOP (PROOUT)


 Dipole corrections
   LMONO  =      F    monopole corrections only (constant potential shift)
   LDIPOL =      F    correct potential (dipole corrections)
   IDIPOL =      0    1-x, 2-y, 3-z, 4-all directions 
   EPSILON=  1.0000000 bulk dielectric constant

 Exchange correlation treatment:
   GGA     =    --    GGA type
   LEXCH   =     2    internal setting for exchange type
   VOSKOWN=      0    Vosko Wilk Nusair interpolation
   LHFCALC =     F    Hartree Fock is set to
   LHFONE  =     F    Hartree Fock one center treatment
   AEXX    =    0.0000 exact exchange contribution

 Linear response parameters
   LEPSILON=     F    determine dielectric tensor
   LRPA    =     F    only Hartree local field effects (RPA)
   LNABLA  =     F    use nabla operator in PAW spheres
   LVEL    =     F    velocity operator in full k-point grid
   LINTERFAST=   F  fast interpolation
   KINTER  =     0    interpolate to denser k-point grid
   CSHIFT  =0.1000    complex shift for real part using Kramers Kronig
   OMEGAMAX=  -1.0    maximum frequency
   DEG_THRESHOLD= 0.2000000E-02 threshold for treating states as degnerate
   RTIME   =    0.100 relaxation time in fs

 Orbital magnetization related:
   ORBITALMAG=     F  switch on orbital magnetization
   LCHIMAG   =     F  perturbation theory with respect to B field
   DQ        =  0.001000  dq finite difference perturbation B field



--------------------------------------------------------------------------------------------------------


 conjugate gradient relaxation of ions
 charge density and potential will be updated during run
 non-spin polarized calculation
 Variant of blocked Davidson
 Davidson routine will perform the subspace rotation
 perform sub-space diagonalisation
    after iterative eigenvector-optimisation
 modified Broyden-mixing scheme, WC =      100.0
 initial mixing is a Kerker type mixing with AMIX =  0.4000 and BMIX =      1.0000
 Hartree-type preconditioning will be used
 using additional bands           62
 real space projection scheme for non local part
 use partial core corrections
 calculate Harris-corrections to forces 
   (improved forces if not selfconsistent)
 use of overlap-Matrix (Vanderbilt PP)
 Gauss-broadening in eV      SIGMA  =   0.01


--------------------------------------------------------------------------------------------------------


  energy-cutoff  :      500.00
  volume of cell :     1808.93
      direct lattice vectors                 reciprocal lattice vectors
    12.184487343  0.000000000  0.000000000     0.082071570  0.000000000  0.000000000
     0.000000000 12.184487343  0.000000000     0.000000000  0.082071570  0.000000000
     0.000000000  0.000000000 12.184487343     0.000000000  0.000000000  0.082071570

  length of vectors
    12.184487343 12.184487343 12.184487343     0.082071570  0.082071570  0.082071570


 
 k-points in units of 2pi/SCALE and weight: koint                                   
   0.00000000  0.00000000  0.00000000       0.037
   0.02735719  0.00000000  0.00000000       0.222
   0.02735719  0.02735719  0.00000000       0.444
   0.02735719  0.02735719  0.02735719       0.296
 
 k-points in reciprocal lattice and weights: koint                                   
   0.00000000  0.00000000  0.00000000       0.037
   0.33333333  0.00000000  0.00000000       0.222
   0.33333333  0.33333333  0.00000000       0.444
   0.33333333  0.33333333  0.33333333       0.296
 
 position of ions in fractional coordinates (direct lattice) 
   0.00000000  0.00000000  0.00000000
   0.50000000  0.00000000  0.00000000
   0.00000000  0.25000000  0.25000000
   0.50000000  0.25000000  0.25000000
   0.25000000  0.00000000  0.75000000
   0.75000000  0.00000000  0.75000000
   0.25000000  0.25000000  0.50000000
   0.75000000  0.25000000  0.50000000
   0.25000000  0.50000000  0.25000000
   0.75000000  0.50000000  0.25000000
   0.25000000  0.75000000  0.00000000
   0.75000000  0.75000000  0.00000000
   0.00000000  0.75000000  0.25000000
   0.50000000  0.75000000  0.25000000
   0.00000000  0.50000000  0.50000000
   0.50000000  0.50000000  0.50000000
   0.25000000  0.75000000  0.50000000
   0.75000000  0.75000000  0.50000000
   0.25000000  0.00000000  0.25000000
   0.75000000  0.00000000  0.25000000
   0.00000000  0.00000000  0.50000000
   0.50000000  0.00000000  0.50000000
   0.25000000  0.50000000  0.75000000
   0.75000000  0.50000000  0.75000000
   0.00000000  0.25000000  0.75000000
   0.50000000  0.25000000  0.75000000
   0.00000000  0.75000000  0.75000000
   0.50000000  0.75000000  0.75000000
   0.00000000  0.50000000  0.00000000
   0.50000000  0.50000000  0.00000000
   0.25000000  0.25000000  0.00000000
   0.75000000  0.25000000  0.00000000
   0.62500000  0.62500000  0.62500000
   0.12500000  0.62500000  0.62500000
   0.62500000  0.87500000  0.87500000
   0.12500000  0.87500000  0.87500000
   0.87500000  0.62500000  0.37500000
   0.37500000  0.62500000  0.37500000
   0.87500000  0.87500000  0.12500000
   0.37500000  0.87500000  0.12500000
   0.87500000  0.12500000  0.87500000
   0.37500000  0.12500000  0.87500000
   0.87500000  0.37500000  0.62500000
   0.37500000  0.37500000  0.62500000
   0.62500000  0.37500000  0.87500000
   0.12500000  0.37500000  0.87500000
   0.62500000  0.12500000  0.12500000
   0.12500000  0.12500000  0.12500000
   0.87500000  0.37500000  0.12500000
   0.37500000  0.37500000  0.12500000
   0.87500000  0.62500000  0.87500000
   0.37500000  0.62500000  0.87500000
   0.62500000  0.62500000  0.12500000
   0.12500000  0.62500000  0.12500000
   0.87500000  0.12500000  0.37500000
   0.37500000  0.12500000  0.37500000
   0.62500000  0.87500000  0.37500000
   0.12500000  0.87500000  0.37500000
   0.62500000  0.37500000  0.37500000
   0.12500000  0.37500000  0.37500000
   0.62500000  0.12500000  0.62500000
   0.12500000  0.12500000  0.62500000
   0.87500000  0.87500000  0.62500000
   0.37500000  0.87500000  0.62500000
 
 position of ions in cartesian coordinates  (Angst):
   0.00000000  0.00000000  0.00000000
   6.09224367  0.00000000  0.00000000
   0.00000000  3.04612184  3.04612184
   6.09224367  3.04612184  3.04612184
   3.04612184  0.00000000  9.13836551
   9.13836551  0.00000000  9.13836551
   3.04612184  3.04612184  6.09224367
   9.13836551  3.04612184  6.09224367
   3.04612184  6.09224367  3.04612184
   9.13836551  6.09224367  3.04612184
   3.04612184  9.13836551  0.00000000
   9.13836551  9.13836551  0.00000000
   0.00000000  9.13836551  3.04612184
   6.09224367  9.13836551  3.04612184
   0.00000000  6.09224367  6.09224367
   6.09224367  6.09224367  6.09224367
   3.04612184  9.13836551  6.09224367
   9.13836551  9.13836551  6.09224367
   3.04612184  0.00000000  3.04612184
   9.13836551  0.00000000  3.04612184
   0.00000000  0.00000000  6.09224367
   6.09224367  0.00000000  6.09224367
   3.04612184  6.09224367  9.13836551
   9.13836551  6.09224367  9.13836551
   0.00000000  3.04612184  9.13836551
   6.09224367  3.04612184  9.13836551
   0.00000000  9.13836551  9.13836551
   6.09224367  9.13836551  9.13836551
   0.00000000  6.09224367  0.00000000
   6.09224367  6.09224367  0.00000000
   3.04612184  3.04612184  0.00000000
   9.13836551  3.04612184  0.00000000
   7.61530459  7.61530459  7.61530459
   1.52306092  7.61530459  7.61530459
   7.61530459 10.66142642 10.66142642
   1.52306092 10.66142642 10.66142642
  10.66142642  7.61530459  4.56918275
   4.56918275  7.61530459  4.56918275
  10.66142642 10.66142642  1.52306092
   4.56918275 10.66142642  1.52306092
  10.66142642  1.52306092 10.66142642
   4.56918275  1.52306092 10.66142642
  10.66142642  4.56918275  7.61530459
   4.56918275  4.56918275  7.61530459
   7.61530459  4.56918275 10.66142642
   1.52306092  4.56918275 10.66142642
   7.61530459  1.52306092  1.52306092
   1.52306092  1.52306092  1.52306092
  10.66142642  4.56918275  1.52306092
   4.56918275  4.56918275  1.52306092
  10.66142642  7.61530459 10.66142642
   4.56918275  7.61530459 10.66142642
   7.61530459  7.61530459  1.52306092
   1.52306092  7.61530459  1.52306092
  10.66142642  1.52306092  4.56918275
   4.56918275  1.52306092  4.56918275
   7.61530459 10.66142642  4.56918275
   1.52306092 10.66142642  4.56918275
   7.61530459  4.56918275  4.56918275
   1.52306092  4.56918275  4.56918275
   7.61530459  1.52306092  7.61530459
   1.52306092  1.52306092  7.61530459
  10.66142642 10.66142642  7.61530459
   4.56918275 10.66142642  7.61530459
 


--------------------------------------------------------------------------------------------------------


 k-point  1 :   0.0000 0.0000 0.0000  plane waves:   45961
 k-point  2 :   0.3333 0.0000 0.0000  plane waves:   45956
 k-point  3 :   0.3333 0.3333 0.0000  plane waves:   45902
 k-point  4 :   0.3333 0.3333 0.3333  plane waves:   45914

 maximum and minimum number of plane-waves per node :     11500    11450

 maximum number of plane-waves:     45961
 maximum index in each direction: 
   IXMAX=   22   IYMAX=   22   IZMAX=   22
   IXMIN=  -22   IYMIN=  -22   IZMIN=  -22

 WARNING: aliasing errors must be expected set NGX to  90 to avoid them
 WARNING: aliasing errors must be expected set NGY to  90 to avoid them
 WARNING: aliasing errors must be expected set NGZ to  90 to avoid them
 aliasing errors are usually negligible using standard VASP settings
 and one can safely disregard these warnings

 real space projection operators:
  total allocation   :      13753.62 KBytes
  max/ min on nodes  :       3543.31       3333.50


 parallel 3D FFT for wavefunctions:
    minimum data exchange during FFTs selected (reduces bandwidth)
 parallel 3D FFT for charge:
    minimum data exchange during FFTs selected (reduces bandwidth)


 total amount of memory used by VASP on root node    89535. kBytes
========================================================================

   base      :      30000. kBytes
   nonlr-proj:       6520. kBytes
   fftplans  :       6066. kBytes
   grid      :       9092. kBytes
   one-center:        248. kBytes
   wavefun   :      37609. kBytes
 
     INWAV:  cpu time    0.0000: real time    0.0000
 Broyden mixing: mesh for mixing (old mesh)
   NGX = 45   NGY = 45   NGZ = 45
  (NGX  =140   NGY  =140   NGZ  =140)
  gives a total of  91125 points

 initial charge density was supplied:
 charge density of overlapping atoms calculated
 number of electron     576.0000000 magnetization 
 keeping initial charge density in first step


--------------------------------------------------------------------------------------------------------


 Maximum index for non-local projection operator          576
 Maximum index for augmentation-charges          540 (set IRDMAX)


--------------------------------------------------------------------------------------------------------


 First call to EWALD:  gamma=   0.145
 Maximum number of real-space cells 3x 3x 3
 Maximum number of reciprocal cells 3x 3x 3

 FEWALD executed in parallel
    FEWALD:  cpu time    0.0020: real time    0.0035


----------------------------------------- Iteration    1(   1)  ---------------------------------------


    POTLOK:  cpu time    0.0270: real time    0.0284
    SETDIJ:  cpu time    0.0140: real time    0.0149
     EDDAV:  cpu time   10.3314: real time   10.3425
       DOS:  cpu time    0.0010: real time    0.0011
    --------------------------------------------
      LOOP:  cpu time   10.3764: real time   10.3916

 eigenvalue-minimisations  :  2856
 total energy-change (2. order) : 0.6076309E+04  (-0.2224125E+05)
 number of electron     576.0000000 magnetization 
 augmentation part      576.0000000 magnetization 

 Free energy of the ion-electron system (eV)
  ---------------------------------------------------
  alpha Z        PSCENC =       861.57115067
  Ewald energy   TEWEN  =    -37580.33695070
  -Hartree energ DENC   =    -24974.68786207
  -exchange      EXHF   =         0.00000000
  -V(xc)+E(xc)   XCENC  =       -35.56893902
  PAW double counting   =     56547.11674902   -65584.27798732
  entropy T*S    EENTRO =        -0.00096363
  eigenvalues    EBANDS =      3045.86619098
  atomic energy  EATOM  =     73796.62808581
  Solvation  Ediel_sol  =         0.00000000
  ---------------------------------------------------
  free energy    TOTEN  =      6076.30947374 eV

  energy without entropy =     6076.31043737  energy(sigma->0) =     6076.30995556


--------------------------------------------------------------------------------------------------------




----------------------------------------- Iteration    1(   2)  ---------------------------------------


     EDDAV:  cpu time   10.5994: real time   10.6015
       DOS:  cpu time    0.0010: real time    0.0009
    --------------------------------------------
      LOOP:  cpu time   10.6024: real time   10.6076

 eigenvalue-minimisations  :  2926
 total energy-change (2. order) :-0.4973263E+04  (-0.4824308E+04)
 number of electron     576.0000000 magnetization 
 augmentation part      576.0000000 magnetization 

 Free energy of the ion-electron system (eV)
  ---------------------------------------------------
  alpha Z        PSCENC =       861.57115067
  Ewald energy   TEWEN  =    -37580.33695070
  -Hartree energ DENC   =    -24974.68786207
  -exchange      EXHF   =         0.00000000
  -V(xc)+E(xc)   XCENC  =       -35.56893902
  PAW double counting   =     56547.11674902   -65584.27798732
  entropy T*S    EENTRO =        -0.00106984
  eigenvalues    EBANDS =     -1927.39681146
  atomic energy  EATOM  =     73796.62808581
  Solvation  Ediel_sol  =         0.00000000
  ---------------------------------------------------
  free energy    TOTEN  =      1103.04636510 eV

  energy without entropy =     1103.04743494  energy(sigma->0) =     1103.04690002


--------------------------------------------------------------------------------------------------------




----------------------------------------- Iteration    1(   3)  ---------------------------------------


     EDDAV:  cpu time   15.5046: real time   15.5084
       DOS:  cpu time    0.0000: real time    0.0003
    --------------------------------------------
      LOOP:  cpu time   15.5076: real time   15.5133

 eigenvalue-minimisations  :  3318
 total energy-change (2. order) :-0.1235082E+04  (-0.1133296E+04)
 number of electron     576.0000000 magnetization 
 augmentation part      576.0000000 magnetization 

 Free energy of the ion-electron system (eV)
  ---------------------------------------------------
  alpha Z        PSCENC =       861.57115067
  Ewald energy   TEWEN  =    -37580.33695070
  -Hartree energ DENC   =    -24974.68786207
  -exchange      EXHF   =         0.00000000
  -V(xc)+E(xc)   XCENC  =       -35.56893902
  PAW double counting   =     56547.11674902   -65584.27798732
  entropy T*S    EENTRO =        -0.00000000
  eigenvalues    EBANDS =     -3162.48007455
  atomic energy  EATOM  =     73796.62808581
  Solvation  Ediel_sol  =         0.00000000
  ---------------------------------------------------
  free energy    TOTEN  =      -132.03582816 eV

  energy without entropy =     -132.03582816  energy(sigma->0) =     -132.03582816


--------------------------------------------------------------------------------------------------------




----------------------------------------- Iteration    1(   4)  ---------------------------------------


     EDDAV:  cpu time   11.8062: real time   11.8089
       DOS:  cpu time    0.0010: real time    0.0004
    --------------------------------------------
      LOOP:  cpu time   11.8082: real time   11.8141

 eigenvalue-minimisations  :  3360
 total energy-change (2. order) :-0.1419567E+03  (-0.1383093E+03)
 number of electron     576.0000000 magnetization 
 augmentation part      576.0000000 magnetization 

 Free energy of the ion-electron system (eV)
  ---------------------------------------------------
  alpha Z        PSCENC =       861.57115067
  Ewald energy   TEWEN  =    -37580.33695070
  -Hartree energ DENC   =    -24974.68786207
  -exchange      EXHF   =         0.00000000
  -V(xc)+E(xc)   XCENC  =       -35.56893902
  PAW double counting   =     56547.11674902   -65584.27798732
  entropy T*S    EENTRO =        -0.00000000
  eigenvalues    EBANDS =     -3304.43681514
  atomic energy  EATOM  =     73796.62808581
  Solvation  Ediel_sol  =         0.00000000
  ---------------------------------------------------
  free energy    TOTEN  =      -273.99256874 eV

  energy without entropy =     -273.99256874  energy(sigma->0) =     -273.99256874


--------------------------------------------------------------------------------------------------------




----------------------------------------- Iteration    1(   5)  ---------------------------------------


     EDDAV:  cpu time   13.0060: real time   13.0099
       DOS:  cpu time    0.0000: real time    0.0004
    CHARGE:  cpu time    0.6599: real time    0.6594
    MIXING:  cpu time    0.0040: real time    0.0055
    --------------------------------------------
      LOOP:  cpu time   13.6719: real time   13.6807

 eigenvalue-minimisations  :  3794
 total energy-change (2. order) :-0.7027059E+01  (-0.6956654E+01)
 number of electron     575.9996789 magnetization 
 augmentation part      241.6690426 magnetization 

 Broyden mixing:
  rms(total) = 0.22342E+01    rms(broyden)= 0.22342E+01
  rms(prec ) = 0.23749E+01
  weight for this iteration     100.00

 Free energy of the ion-electron system (eV)
  ---------------------------------------------------
  alpha Z        PSCENC =       861.57115067
  Ewald energy   TEWEN  =    -37580.33695070
  -Hartree energ DENC   =    -24974.68786207
  -exchange      EXHF   =         0.00000000
  -V(xc)+E(xc)   XCENC  =       -35.56893902
  PAW double counting   =     56547.11674902   -65584.27798732
  entropy T*S    EENTRO =        -0.00000000
  eigenvalues    EBANDS =     -3311.46387409
  atomic energy  EATOM  =     73796.62808581
  Solvation  Ediel_sol  =         0.00000000
  ---------------------------------------------------
  free energy    TOTEN  =      -281.01962770 eV

  energy without entropy =     -281.01962770  energy(sigma->0) =     -281.01962770


--------------------------------------------------------------------------------------------------------




----------------------------------------- Iteration    1(   6)  ---------------------------------------


    POTLOK:  cpu time    0.0260: real time    0.0274
    SETDIJ:  cpu time    0.0120: real time    0.0115
     EDDAV:  cpu time   12.9380: real time   12.9605
       DOS:  cpu time    0.0000: real time    0.0009
    CHARGE:  cpu time    0.6489: real time    0.6483
    MIXING:  cpu time    0.0040: real time    0.0038
    --------------------------------------------
      LOOP:  cpu time   13.6329: real time   13.6555

 eigenvalue-minimisations  :  3752
 total energy-change (2. order) : 0.2410151E+01  (-0.6397779E+00)
 number of electron     575.9996783 magnetization 
 augmentation part      242.2263635 magnetization 

 Broyden mixing:
  rms(total) = 0.97992E+00    rms(broyden)= 0.97992E+00
  rms(prec ) = 0.10833E+01
  weight for this iteration     100.00

 eigenvalues of (default mixing * dielectric matrix)
  average eigenvalue GAMMA=   1.6993
  1.6993

 Free energy of the ion-electron system (eV)
  ---------------------------------------------------
  alpha Z        PSCENC =       861.57115067
  Ewald energy   TEWEN  =    -37580.33695070
  -Hartree energ DENC   =    -24903.69370165
  -exchange      EXHF   =         0.00000000
  -V(xc)+E(xc)   XCENC  =       -37.34641816
  PAW double counting   =     61303.99548413   -70312.18253960
  entropy T*S    EENTRO =        -0.00058616
  eigenvalues    EBANDS =     -3407.24400056
  atomic energy  EATOM  =     73796.62808581
  Solvation  Ediel_sol  =         0.00000000
  ---------------------------------------------------
  free energy    TOTEN  =      -278.60947621 eV

  energy without entropy =     -278.60889005  energy(sigma->0) =     -278.60918313


--------------------------------------------------------------------------------------------------------




----------------------------------------- Iteration    1(   7)  ---------------------------------------


    POTLOK:  cpu time    0.0260: real time    0.0267
    SETDIJ:  cpu time    0.0110: real time    0.0112
     EDDAV:  cpu time   11.8252: real time   11.8271
       DOS:  cpu time    0.0000: real time    0.0009
    CHARGE:  cpu time    0.6409: real time    0.6410
    MIXING:  cpu time    0.0030: real time    0.0032
    --------------------------------------------
      LOOP:  cpu time   12.5101: real time   12.5166

 eigenvalue-minimisations  :  3360
 total energy-change (2. order) : 0.1039247E+01  (-0.1796074E+00)
 number of electron     575.9996781 magnetization 
 augmentation part      242.5389090 magnetization 

 Broyden mixing:
  rms(total) = 0.29325E+00    rms(broyden)= 0.29325E+00
  rms(prec ) = 0.32293E+00
  weight for this iteration     100.00

 eigenvalues of (default mixing * dielectric matrix)
  average eigenvalue GAMMA=   1.7025
  0.9859  2.4190

 Free energy of the ion-electron system (eV)
  ---------------------------------------------------
  alpha Z        PSCENC =       861.57115067
  Ewald energy   TEWEN  =    -37580.33695070
  -Hartree energ DENC   =    -24898.16969044
  -exchange      EXHF   =         0.00000000
  -V(xc)+E(xc)   XCENC  =       -36.38364735
  PAW double counting   =     66041.86394920   -75073.43926893
  entropy T*S    EENTRO =        -0.00057134
  eigenvalues    EBANDS =     -3389.30328567
  atomic energy  EATOM  =     73796.62808581
  Solvation  Ediel_sol  =         0.00000000
  ---------------------------------------------------
  free energy    TOTEN  =      -277.57022875 eV

  energy without entropy =     -277.56965740  energy(sigma->0) =     -277.56994307


--------------------------------------------------------------------------------------------------------




----------------------------------------- Iteration    1(   8)  ---------------------------------------


    POTLOK:  cpu time    0.0270: real time    0.0265
    SETDIJ:  cpu time    0.0110: real time    0.0111
     EDDAV:  cpu time   11.8302: real time   11.8356
       DOS:  cpu time    0.0000: real time    0.0009
    CHARGE:  cpu time    0.6489: real time    0.6473
    MIXING:  cpu time    0.0030: real time    0.0033
    --------------------------------------------
      LOOP:  cpu time   12.5231: real time   12.5299

 eigenvalue-minimisations  :  3360
 total energy-change (2. order) : 0.6813592E-01  (-0.2568599E-01)
 number of electron     575.9996782 magnetization 
 augmentation part      242.4858565 magnetization 

 Broyden mixing:
  rms(total) = 0.48446E-01    rms(broyden)= 0.48446E-01
  rms(prec ) = 0.54956E-01
  weight for this iteration     100.00

 eigenvalues of (default mixing * dielectric matrix)
  average eigenvalue GAMMA=   1.6431
  2.4653  1.0810  1.3830

 Free energy of the ion-electron system (eV)
  ---------------------------------------------------
  alpha Z        PSCENC =       861.57115067
  Ewald energy   TEWEN  =    -37580.33695070
  -Hartree energ DENC   =    -24908.85617181
  -exchange      EXHF   =         0.00000000
  -V(xc)+E(xc)   XCENC  =       -35.33743489
  PAW double counting   =     68085.39837287   -77136.17923236
  entropy T*S    EENTRO =        -0.00057134
  eigenvalues    EBANDS =     -3360.38934108
  atomic energy  EATOM  =     73796.62808581
  Solvation  Ediel_sol  =         0.00000000
  ---------------------------------------------------
  free energy    TOTEN  =      -277.50209282 eV

  energy without entropy =     -277.50152148  energy(sigma->0) =     -277.50180715


--------------------------------------------------------------------------------------------------------




----------------------------------------- Iteration    1(   9)  ---------------------------------------


    POTLOK:  cpu time    0.0260: real time    0.0268
    SETDIJ:  cpu time    0.0110: real time    0.0112
     EDDAV:  cpu time   12.4171: real time   12.4201
       DOS:  cpu time    0.0010: real time    0.0009
    CHARGE:  cpu time    0.6459: real time    0.6461
    MIXING:  cpu time    0.0030: real time    0.0035
    --------------------------------------------
      LOOP:  cpu time   13.1070: real time   13.1142

 eigenvalue-minimisations  :  3570
 total energy-change (2. order) :-0.2631714E-02  (-0.2174882E-02)
 number of electron     575.9996782 magnetization 
 augmentation part      242.5032420 magnetization 

 Broyden mixing:
  rms(total) = 0.18764E-01    rms(broyden)= 0.18764E-01
  rms(prec ) = 0.21689E-01
  weight for this iteration     100.00

 eigenvalues of (default mixing * dielectric matrix)
  average eigenvalue GAMMA=   1.6472
  2.5157  2.1725  0.8701  1.0305

 Free energy of the ion-electron system (eV)
  ---------------------------------------------------
  alpha Z        PSCENC =       861.57115067
  Ewald energy   TEWEN  =    -37580.33695070
  -Hartree energ DENC   =    -24909.03327780
  -exchange      EXHF   =         0.00000000
  -V(xc)+E(xc)   XCENC  =       -35.23860148
  PAW double counting   =     68185.57080854   -77235.01866243
  entropy T*S    EENTRO =        -0.00057134
  eigenvalues    EBANDS =     -3361.64670581
  atomic energy  EATOM  =     73796.62808581
  Solvation  Ediel_sol  =         0.00000000
  ---------------------------------------------------
  free energy    TOTEN  =      -277.50472454 eV

  energy without entropy =     -277.50415320  energy(sigma->0) =     -277.50443887


--------------------------------------------------------------------------------------------------------




----------------------------------------- Iteration    1(  10)  ---------------------------------------


    POTLOK:  cpu time    0.0260: real time    0.0266
    SETDIJ:  cpu time    0.0110: real time    0.0111
     EDDAV:  cpu time   11.8712: real time   11.8737
       DOS:  cpu time    0.0010: real time    0.0009
    CHARGE:  cpu time    0.6449: real time    0.6451
    MIXING:  cpu time    0.0040: real time    0.0037
    --------------------------------------------
      LOOP:  cpu time   12.5601: real time   12.5664

 eigenvalue-minimisations  :  3360
 total energy-change (2. order) :-0.8596160E-03  (-0.2684400E-03)
 number of electron     575.9996782 magnetization 
 augmentation part      242.4816493 magnetization 

 Broyden mixing:
  rms(total) = 0.66546E-02    rms(broyden)= 0.66546E-02
  rms(prec ) = 0.80986E-02
  weight for this iteration     100.00

 eigenvalues of (default mixing * dielectric matrix)
  average eigenvalue GAMMA=   1.7357
  2.6071  2.6071  1.5610  0.8350  1.0685

 Free energy of the ion-electron system (eV)
  ---------------------------------------------------
  alpha Z        PSCENC =       861.57115067
  Ewald energy   TEWEN  =    -37580.33695070
  -Hartree energ DENC   =    -24910.58931598
  -exchange      EXHF   =         0.00000000
  -V(xc)+E(xc)   XCENC  =       -35.12389749
  PAW double counting   =     68179.67819586   -77229.84173304
  entropy T*S    EENTRO =        -0.00057134
  eigenvalues    EBANDS =     -3359.49054794
  atomic energy  EATOM  =     73796.62808581
  Solvation  Ediel_sol  =         0.00000000
  ---------------------------------------------------
  free energy    TOTEN  =      -277.50558415 eV

  energy without entropy =     -277.50501281  energy(sigma->0) =     -277.50529848


--------------------------------------------------------------------------------------------------------




----------------------------------------- Iteration    1(  11)  ---------------------------------------


    POTLOK:  cpu time    0.0260: real time    0.0264
    SETDIJ:  cpu time    0.0110: real time    0.0114
     EDDAV:  cpu time   14.1948: real time   14.2015
       DOS:  cpu time    0.0010: real time    0.0009
    CHARGE:  cpu time    0.6449: real time    0.6451
    MIXING:  cpu time    0.0040: real time    0.0040
    --------------------------------------------
      LOOP:  cpu time   14.8837: real time   14.8942

 eigenvalue-minimisations  :  4200
 total energy-change (2. order) :-0.1142099E-03  (-0.5205071E-04)
 number of electron     575.9996782 magnetization 
 augmentation part      242.4852274 magnetization 

 Broyden mixing:
  rms(total) = 0.17386E-02    rms(broyden)= 0.17386E-02
  rms(prec ) = 0.20636E-02
  weight for this iteration     100.00

 eigenvalues of (default mixing * dielectric matrix)
  average eigenvalue GAMMA=   1.6173
  2.8060  2.4403  1.6209  1.1136  0.8615  0.8615

 Free energy of the ion-electron system (eV)
  ---------------------------------------------------
  alpha Z        PSCENC =       861.57115067
  Ewald energy   TEWEN  =    -37580.33695070
  -Hartree energ DENC   =    -24910.43184883
  -exchange      EXHF   =         0.00000000
  -V(xc)+E(xc)   XCENC  =       -35.09798124
  PAW double counting   =     68136.96396774   -77186.87541029
  entropy T*S    EENTRO =        -0.00057134
  eigenvalues    EBANDS =     -3359.92614018
  atomic energy  EATOM  =     73796.62808581
  Solvation  Ediel_sol  =         0.00000000
  ---------------------------------------------------
  free energy    TOTEN  =      -277.50569836 eV

  energy without entropy =     -277.50512702  energy(sigma->0) =     -277.50541269


--------------------------------------------------------------------------------------------------------




----------------------------------------- Iteration    1(  12)  ---------------------------------------


    POTLOK:  cpu time    0.0260: real time    0.0266
    SETDIJ:  cpu time    0.0120: real time    0.0112
     EDDAV:  cpu time   11.7892: real time   11.7927
       DOS:  cpu time    0.0010: real time    0.0009
    CHARGE:  cpu time    0.6439: real time    0.6440
    MIXING:  cpu time    0.0040: real time    0.0041
    --------------------------------------------
      LOOP:  cpu time   12.4791: real time   12.4848

 eigenvalue-minimisations  :  3332
 total energy-change (2. order) :-0.2174056E-07  (-0.3792845E-05)
 number of electron     575.9996782 magnetization 
 augmentation part      242.4851423 magnetization 

 Broyden mixing:
  rms(total) = 0.12304E-02    rms(broyden)= 0.12304E-02
  rms(prec ) = 0.13136E-02
  weight for this iteration     100.00

 eigenvalues of (default mixing * dielectric matrix)
  average eigenvalue GAMMA=   1.7417
  2.9276  2.4695  1.9544  1.9544  1.0692  0.9869  0.8301

 Free energy of the ion-electron system (eV)
  ---------------------------------------------------
  alpha Z        PSCENC =       861.57115067
  Ewald energy   TEWEN  =    -37580.33695070
  -Hartree energ DENC   =    -24910.64881159
  -exchange      EXHF   =         0.00000000
  -V(xc)+E(xc)   XCENC  =       -35.08811041
  PAW double counting   =     68140.42242166   -77190.47796416
  entropy T*S    EENTRO =        -0.00057134
  eigenvalues    EBANDS =     -3359.57494834
  atomic energy  EATOM  =     73796.62808581
  Solvation  Ediel_sol  =         0.00000000
  ---------------------------------------------------
  free energy    TOTEN  =      -277.50569838 eV

  energy without entropy =     -277.50512704  energy(sigma->0) =     -277.50541271


--------------------------------------------------------------------------------------------------------




----------------------------------------- Iteration    1(  13)  ---------------------------------------


    POTLOK:  cpu time    0.0260: real time    0.0265
    SETDIJ:  cpu time    0.0110: real time    0.0113
     EDDAV:  cpu time   10.8683: real time   10.8707
       DOS:  cpu time    0.0010: real time    0.0009
    --------------------------------------------
      LOOP:  cpu time   10.9083: real time   10.9143

 eigenvalue-minimisations  :  2982
 total energy-change (2. order) :-0.5829497E-06  (-0.7127463E-06)
 number of electron     575.9996782 magnetization 
 augmentation part      242.4851423 magnetization 

 Free energy of the ion-electron system (eV)
  ---------------------------------------------------
  alpha Z        PSCENC =       861.57115067
  Ewald energy   TEWEN  =    -37580.33695070
  -Hartree energ DENC   =    -24910.92914279
  -exchange      EXHF   =         0.00000000
  -V(xc)+E(xc)   XCENC  =       -35.08264371
  PAW double counting   =     68137.11118558   -77187.20013642
  entropy T*S    EENTRO =        -0.00057134
  eigenvalues    EBANDS =     -3359.26667607
  atomic energy  EATOM  =     73796.62808581
  Solvation  Ediel_sol  =         0.00000000
  ---------------------------------------------------
  free energy    TOTEN  =      -277.50569897 eV

  energy without entropy =     -277.50512763  energy(sigma->0) =     -277.50541330


--------------------------------------------------------------------------------------------------------




 average (electrostatic) potential at core
  the test charge radii are     1.0314  1.1712
  (the norm of the test charge is              1.0000)
       1 -66.7679       2 -66.7679       3 -66.7679       4 -66.7679       5 -66.7679
       6 -66.7679       7 -66.7679       8 -66.7679       9 -66.7679      10 -66.7679
      11 -66.7679      12 -66.7679      13 -66.7679      14 -66.7679      15 -66.7679
      16 -66.7679      17 -66.7679      18 -66.7679      19 -66.7679      20 -66.7679
      21 -66.7679      22 -66.7679      23 -66.7679      24 -66.7679      25 -66.7679
      26 -66.7679      27 -66.7679      28 -66.7679      29 -66.7679      30 -66.7679
      31 -66.7679      32 -66.7679      33 -88.5459      34 -88.5459      35 -88.5459
      36 -88.5459      37 -88.5459      38 -88.5459      39 -88.5459      40 -88.5459
      41 -88.5459      42 -88.5459      43 -88.5459      44 -88.5459      45 -88.5459
      46 -88.5459      47 -88.5459      48 -88.5459      49 -88.5459      50 -88.5459
      51 -88.5459      52 -88.5459      53 -88.5459      54 -88.5459      55 -88.5459
      56 -88.5459      57 -88.5459      58 -88.5459      59 -88.5459      60 -88.5459
      61 -88.5459      62 -88.5459      63 -88.5459      64 -88.5459
 
 
 
 E-fermi :   4.8118     XC(G=0):  -9.4520     alpha+bet :-10.2051


 k-point     1 :       0.0000    0.0000    0.0000
  band No.  band energies     occupation 
      1     -10.4047      2.00000
      2     -10.4047      2.00000
      3     -10.4047      2.00000
      4     -10.3978      2.00000
      5     -10.3978      2.00000
      6     -10.3978      2.00000
      7     -10.3978      2.00000
      8     -10.3978      2.00000
      9     -10.3978      2.00000
     10     -10.3869      2.00000
     11     -10.3869      2.00000
     12     -10.3869      2.00000
     13     -10.3869      2.00000
     14     -10.3869      2.00000
     15     -10.3869      2.00000
     16     -10.3869      2.00000
     17     -10.3869      2.00000
     18     -10.3869      2.00000
     19     -10.3869      2.00000
     20     -10.3869      2.00000
     21     -10.3869      2.00000
     22     -10.3869      2.00000
     23     -10.3869      2.00000
     24     -10.3869      2.00000
     25     -10.3868      2.00000
     26     -10.3829      2.00000
     27     -10.3829      2.00000
     28     -10.3829      2.00000
     29     -10.3829      2.00000
     30     -10.3829      2.00000
     31     -10.3829      2.00000
     32     -10.3581      2.00000
     33     -10.3581      2.00000
     34     -10.3581      2.00000
     35     -10.3470      2.00000
     36     -10.3470      2.00000
     37     -10.3470      2.00000
     38     -10.3470      2.00000
     39     -10.3470      2.00000
     40     -10.3470      2.00000
     41     -10.3470      2.00000
     42     -10.3470      2.00000
     43     -10.3455      2.00000
     44     -10.3455      2.00000
     45     -10.3455      2.00000
     46     -10.3455      2.00000
     47     -10.3455      2.00000
     48     -10.3455      2.00000
     49     -10.3455      2.00000
     50     -10.3455      2.00000
     51     -10.3455      2.00000
     52     -10.3455      2.00000
     53     -10.3455      2.00000
     54     -10.3455      2.00000
     55     -10.3449      2.00000
     56     -10.3449      2.00000
     57     -10.3449      2.00000
     58     -10.3449      2.00000
     59     -10.3449      2.00000
     60     -10.3449      2.00000
     61     -10.3449      2.00000
     62     -10.3449      2.00000
     63     -10.3449      2.00000
     64     -10.3449      2.00000
     65     -10.3449      2.00000
     66     -10.3449      2.00000
     67     -10.3448      2.00000
     68     -10.3448      2.00000
     69     -10.3448      2.00000
     70     -10.3448      2.00000
     71     -10.3448      2.00000
     72     -10.3448      2.00000
     73     -10.3448      2.00000
     74     -10.3448      2.00000
     75     -10.3448      2.00000
     76     -10.3448      2.00000
     77     -10.3448      2.00000
     78     -10.3448      2.00000
     79     -10.3408      2.00000
     80     -10.3408      2.00000
     81     -10.3408      2.00000
     82     -10.3408      2.00000
     83     -10.3408      2.00000
     84     -10.3408      2.00000
     85     -10.3345      2.00000
     86     -10.3345      2.00000
     87     -10.3345      2.00000
     88     -10.3344      2.00000
     89     -10.3344      2.00000
     90     -10.3344      2.00000
     91     -10.3326      2.00000
     92     -10.3326      2.00000
     93     -10.3326      2.00000
     94     -10.3325      2.00000
     95     -10.3325      2.00000
     96     -10.3325      2.00000
     97     -10.3194      2.00000
     98     -10.3194      2.00000
     99     -10.3193      2.00000
    100     -10.3131      2.00000
    101     -10.3131      2.00000
    102     -10.3131      2.00000
    103     -10.3131      2.00000
    104     -10.3131      2.00000
    105     -10.3131      2.00000
    106     -10.3124      2.00000
    107     -10.3124      2.00000
    108     -10.3124      2.00000
    109     -10.3123      2.00000
    110     -10.3123      2.00000
    111     -10.3123      2.00000
    112     -10.3087      2.00000
    113     -10.3087      2.00000
    114     -10.3087      2.00000
    115     -10.3086      2.00000
    116     -10.3086      2.00000
    117     -10.3086      2.00000
    118     -10.3086      2.00000
    119     -10.3086      2.00000
    120     -10.3086      2.00000
    121     -10.3085      2.00000
    122     -10.3085      2.00000
    123     -10.3085      2.00000
    124     -10.3079      2.00000
    125     -10.3079      2.00000
    126     -10.3079      2.00000
    127     -10.3079      2.00000
    128     -10.3079      2.00000
    129     -10.3079      2.00000
    130     -10.3078      2.00000
    131     -10.3078      2.00000
    132     -10.3078      2.00000
    133     -10.3078      2.00000
    134     -10.3078      2.00000
    135     -10.3078      2.00000
    136     -10.3068      2.00000
    137     -10.3068      2.00000
    138     -10.3066      2.00000
    139     -10.3066      2.00000
    140     -10.3066      2.00000
    141     -10.3066      2.00000
    142     -10.3066      2.00000
    143     -10.3066      2.00000
    144     -10.3065      2.00000
    145     -10.3065      2.00000
    146     -10.3065      2.00000
    147     -10.3065      2.00000
    148     -10.3065      2.00000
    149     -10.3065      2.00000
    150     -10.3065      2.00000
    151     -10.3065      2.00000
    152     -10.3047      2.00000
    153     -10.3047      2.00000
    154     -10.3047      2.00000
    155     -10.3047      2.00000
    156     -10.3047      2.00000
    157     -10.3047      2.00000
    158     -10.3028      2.00000
    159     -10.3027      2.00000
    160     -10.3027      2.00000
    161      -6.7969      2.00000
    162      -5.9502      2.00000
    163      -5.9502      2.00000
    164      -5.9502      2.00000
    165      -5.9502      2.00000
    166      -5.9502      2.00000
    167      -5.9502      2.00000
    168      -5.2687      2.00000
    169      -5.2687      2.00000
    170      -5.2687      2.00000
    171      -5.2687      2.00000
    172      -5.2687      2.00000
    173      -5.2687      2.00000
    174      -5.2686      2.00000
    175      -5.2686      2.00000
    176      -5.2686      2.00000
    177      -5.2686      2.00000
    178      -5.2686      2.00000
    179      -5.2686      2.00000
    180      -5.1440      2.00000
    181      -5.1440      2.00000
    182      -5.1440      2.00000
    183      -5.1439      2.00000
    184      -4.3004      2.00000
    185      -4.3004      2.00000
    186      -4.3004      2.00000
    187      -4.2538      2.00000
    188      -4.2538      2.00000
    189      -4.2538      2.00000
    190      -4.2538      2.00000
    191      -4.2538      2.00000
    192      -4.2538      2.00000
    193      -2.0995      2.00000
    194      -2.0995      2.00000
    195      -2.0995      2.00000
    196      -1.9634      2.00000
    197      -1.9634      2.00000
    198      -1.9634      2.00000
    199      -1.9634      2.00000
    200      -1.9634      2.00000
    201      -1.9634      2.00000
    202      -1.6573      2.00000
    203      -1.6573      2.00000
    204      -1.6573      2.00000
    205      -1.6572      2.00000
    206      -0.7954      2.00000
    207      -0.7954      2.00000
    208      -0.7954      2.00000
    209      -0.7954      2.00000
    210      -0.7954      2.00000
    211      -0.7954      2.00000
    212      -0.7954      2.00000
    213      -0.7954      2.00000
    214      -0.7954      2.00000
    215      -0.7954      2.00000
    216      -0.7954      2.00000
    217      -0.7954      2.00000
    218       0.6895      2.00000
    219       0.6895      2.00000
    220       0.6895      2.00000
    221       0.6896      2.00000
    222       0.6896      2.00000
    223       0.6896      2.00000
    224       1.3864      2.00000
    225       1.3864      2.00000
    226       1.3864      2.00000
    227       1.3865      2.00000
    228       1.3865      2.00000
    229       1.3865      2.00000
    230       1.5355      2.00000
    231       1.5355      2.00000
    232       1.5355      2.00000
    233       1.5355      2.00000
    234       1.5355      2.00000
    235       1.5355      2.00000
    236       1.5355      2.00000
    237       1.5355      2.00000
    238       1.5355      2.00000
    239       1.5357      2.00000
    240       1.5357      2.00000
    241       1.5357      2.00000
    242       1.6081      2.00000
    243       1.6081      2.00000
    244       1.6081      2.00000
    245       1.6081      2.00000
    246       1.6081      2.00000
    247       1.6081      2.00000
    248       2.1885      2.00000
    249       2.1885      2.00000
    250       2.1885      2.00000
    251       2.1886      2.00000
    252       2.1886      2.00000
    253       2.1886      2.00000
    254       3.1113      2.00000
    255       3.1113      2.00000
    256       3.1113      2.00000
    257       3.1113      2.00000
    258       3.1113      2.00000
    259       3.1113      2.00000
    260       3.1114      2.00000
    261       3.1114      2.00000
    262       3.1114      2.00000
    263       3.1114      2.00000
    264       3.1114      2.00000
    265       3.1114      2.00000
    266       3.5602      2.00000
    267       3.5602      2.00000
    268       3.5602      2.00000
    269       3.5602      2.00000
    270       3.5602      2.00000
    271       3.5602      2.00000
    272       3.5604      2.00000
    273       3.5604      2.00000
    274       3.5604      2.00000
    275       3.5604      2.00000
    276       3.5604      2.00000
    277       3.5604      2.00000
    278       3.6346      2.00000
    279       3.6346      2.00000
    280       3.6346      2.00000
    281       3.6346      2.00000
    282       3.6346      2.00000
    283       3.6349      2.00000
    284       3.6349      2.00000
    285       3.6349      2.00000
    286       4.7734      2.00000
    287       4.8088      1.33333
    288       4.8088      1.33333
    289       4.8088      1.33333
    290       5.1330      0.00000
    291       5.1331      0.00000
    292       5.1331      0.00000
    293       5.1331      0.00000
    294       5.6282      0.00000
    295       5.6282      0.00000
    296       5.6282      0.00000
    297       5.9499      0.00000
    298       5.9499      0.00000
    299       5.9499      0.00000
    300       5.9843      0.00000
    301       5.9843      0.00000
    302       5.9843      0.00000
    303       5.9843      0.00000
    304       5.9843      0.00000
    305       5.9843      0.00000
    306       6.7515      0.00000
    307       6.7515      0.00000
    308       6.7515      0.00000
    309       6.7515      0.00000
    310       6.7515      0.00000
    311       6.7515      0.00000
    312       6.7515      0.00000
    313       6.7515      0.00000
    314       6.7515      0.00000
    315       6.7515      0.00000
    316       6.7515      0.00000
    317       6.7515      0.00000
    318       7.4581      0.00000
    319       7.4581      0.00000
    320       7.4581      0.00000
    321       7.4581      0.00000
    322       7.4581      0.00000
    323       7.4581      0.00000
    324       7.5560      0.00000
    325       7.5560      0.00000
    326       7.5560      0.00000
    327       8.4687      0.00000
    328       8.4687      0.00000
    329       8.4688      0.00000
    330       8.4688      0.00000
    331       8.4688      0.00000
    332       8.4689      0.00000
    333       8.5246      0.00000
    334       8.5246      0.00000
    335       8.5246      0.00000
    336       8.5246      0.00000
    337       8.5246      0.00000
    338       8.5246      0.00000
    339       8.5246      0.00000
    340       8.5246      0.00000
    341       9.0577      0.00000
    342       9.0583      0.00000
    343       9.0591      0.00000
    344       9.0616      0.00000
    345       9.0682      0.00000
    346       9.0743      0.00000
    347       9.1886      0.00000
    348       9.2056      0.00000
    349       9.2444      0.00000
    350       9.2929      0.00000

 k-point     2 :       0.3333    0.0000    0.0000
  band No.  band energies     occupation 
      1     -10.4032      2.00000
      2     -10.4032      2.00000
      3     -10.4019      2.00000
      4     -10.3997      2.00000
      5     -10.3997      2.00000
      6     -10.3963      2.00000
      7     -10.3963      2.00000
      8     -10.3963      2.00000
      9     -10.3963      2.00000
     10     -10.3941      2.00000
     11     -10.3921      2.00000
     12     -10.3921      2.00000
     13     -10.3920      2.00000
     14     -10.3920      2.00000
     15     -10.3869      2.00000
     16     -10.3869      2.00000
     17     -10.3869      2.00000
     18     -10.3869      2.00000
     19     -10.3869      2.00000
     20     -10.3869      2.00000
     21     -10.3869      2.00000
     22     -10.3868      2.00000
     23     -10.3834      2.00000
     24     -10.3834      2.00000
     25     -10.3834      2.00000
     26     -10.3834      2.00000
     27     -10.3827      2.00000
     28     -10.3827      2.00000
     29     -10.3827      2.00000
     30     -10.3827      2.00000
     31     -10.3710      2.00000
     32     -10.3617      2.00000
     33     -10.3564      2.00000
     34     -10.3564      2.00000
     35     -10.3519      2.00000
     36     -10.3519      2.00000
     37     -10.3472      2.00000
     38     -10.3472      2.00000
     39     -10.3472      2.00000
     40     -10.3472      2.00000
     41     -10.3465      2.00000
     42     -10.3465      2.00000
     43     -10.3465      2.00000
     44     -10.3465      2.00000
     45     -10.3465      2.00000
     46     -10.3465      2.00000
     47     -10.3464      2.00000
     48     -10.3464      2.00000
     49     -10.3464      2.00000
     50     -10.3464      2.00000
     51     -10.3464      2.00000
     52     -10.3464      2.00000
     53     -10.3456      2.00000
     54     -10.3456      2.00000
     55     -10.3456      2.00000
     56     -10.3456      2.00000
     57     -10.3455      2.00000
     58     -10.3455      2.00000
     59     -10.3455      2.00000
     60     -10.3455      2.00000
     61     -10.3455      2.00000
     62     -10.3454      2.00000
     63     -10.3454      2.00000
     64     -10.3454      2.00000
     65     -10.3454      2.00000
     66     -10.3454      2.00000
     67     -10.3453      2.00000
     68     -10.3453      2.00000
     69     -10.3433      2.00000
     70     -10.3433      2.00000
     71     -10.3433      2.00000
     72     -10.3433      2.00000
     73     -10.3416      2.00000
     74     -10.3416      2.00000
     75     -10.3416      2.00000
     76     -10.3416      2.00000
     77     -10.3402      2.00000
     78     -10.3402      2.00000
     79     -10.3401      2.00000
     80     -10.3401      2.00000
     81     -10.3391      2.00000
     82     -10.3391      2.00000
     83     -10.3386      2.00000
     84     -10.3386      2.00000
     85     -10.3360      2.00000
     86     -10.3360      2.00000
     87     -10.3360      2.00000
     88     -10.3360      2.00000
     89     -10.3345      2.00000
     90     -10.3345      2.00000
     91     -10.3343      2.00000
     92     -10.3343      2.00000
     93     -10.3341      2.00000
     94     -10.3340      2.00000
     95     -10.3331      2.00000
     96     -10.3331      2.00000
     97     -10.3184      2.00000
     98     -10.3180      2.00000
     99     -10.3180      2.00000
    100     -10.3157      2.00000
    101     -10.3150      2.00000
    102     -10.3150      2.00000
    103     -10.3124      2.00000
    104     -10.3124      2.00000
    105     -10.3124      2.00000
    106     -10.3124      2.00000
    107     -10.3117      2.00000
    108     -10.3117      2.00000
    109     -10.3116      2.00000
    110     -10.3116      2.00000
    111     -10.3104      2.00000
    112     -10.3104      2.00000
    113     -10.3104      2.00000
    114     -10.3104      2.00000
    115     -10.3101      2.00000
    116     -10.3101      2.00000
    117     -10.3100      2.00000
    118     -10.3100      2.00000
    119     -10.3093      2.00000
    120     -10.3081      2.00000
    121     -10.3081      2.00000
    122     -10.3081      2.00000
    123     -10.3080      2.00000
    124     -10.3075      2.00000
    125     -10.3075      2.00000
    126     -10.3075      2.00000
    127     -10.3075      2.00000
    128     -10.3074      2.00000
    129     -10.3072      2.00000
    130     -10.3072      2.00000
    131     -10.3072      2.00000
    132     -10.3072      2.00000
    133     -10.3071      2.00000
    134     -10.3071      2.00000
    135     -10.3071      2.00000
    136     -10.3070      2.00000
    137     -10.3069      2.00000
    138     -10.3069      2.00000
    139     -10.3068      2.00000
    140     -10.3068      2.00000
    141     -10.3067      2.00000
    142     -10.3067      2.00000
    143     -10.3066      2.00000
    144     -10.3066      2.00000
    145     -10.3065      2.00000
    146     -10.3061      2.00000
    147     -10.3061      2.00000
    148     -10.3061      2.00000
    149     -10.3061      2.00000
    150     -10.3058      2.00000
    151     -10.3052      2.00000
    152     -10.3051      2.00000
    153     -10.3050      2.00000
    154     -10.3050      2.00000
    155     -10.3050      2.00000
    156     -10.3050      2.00000
    157     -10.3037      2.00000
    158     -10.3034      2.00000
    159     -10.3034      2.00000
    160     -10.3030      2.00000
    161      -6.7001      2.00000
    162      -6.4135      2.00000
    163      -5.8688      2.00000
    164      -5.8688      2.00000
    165      -5.8688      2.00000
    166      -5.8688      2.00000
    167      -5.6328      2.00000
    168      -5.6328      2.00000
    169      -5.6328      2.00000
    170      -5.6328      2.00000
    171      -5.3408      2.00000
    172      -5.2393      2.00000
    173      -5.2393      2.00000
    174      -5.2393      2.00000
    175      -5.2393      2.00000
    176      -5.1771      2.00000
    177      -5.1771      2.00000
    178      -5.1771      2.00000
    179      -5.1771      2.00000
    180      -4.8317      2.00000
    181      -4.8317      2.00000
    182      -4.8317      2.00000
    183      -4.8317      2.00000
    184      -4.6756      2.00000
    185      -4.4310      2.00000
    186      -4.4310      2.00000
    187      -4.4310      2.00000
    188      -4.4310      2.00000
    189      -4.2889      2.00000
    190      -4.2889      2.00000
    191      -4.2656      2.00000
    192      -4.2656      2.00000
    193      -2.0678      2.00000
    194      -2.0677      2.00000
    195      -1.9999      2.00000
    196      -1.9999      2.00000
    197      -1.7894      2.00000
    198      -1.7894      2.00000
    199      -1.7894      2.00000
    200      -1.7894      2.00000
    201      -1.5953      2.00000
    202      -1.4846      2.00000
    203      -1.4846      2.00000
    204      -1.4846      2.00000
    205      -1.4846      2.00000
    206      -1.3614      2.00000
    207      -1.3614      2.00000
    208      -1.3614      2.00000
    209      -1.3614      2.00000
    210      -1.0701      2.00000
    211      -1.0701      2.00000
    212      -1.0701      2.00000
    213      -1.0701      2.00000
    214      -0.5472      2.00000
    215      -0.1636      2.00000
    216      -0.1636      2.00000
    217      -0.1635      2.00000
    218      -0.1635      2.00000
    219       0.4190      2.00000
    220       0.4190      2.00000
    221       0.4191      2.00000
    222       0.4191      2.00000
    223       1.1767      2.00000
[...]
  0.000  -0.000  -0.000  -0.000  -0.000  -0.000   0.000   0.000   0.000  -0.000   1.536   0.021  -0.000  -0.000  -0.000  -0.000
  0.000   0.000  -0.000   0.000  -0.000   0.000   0.000  -0.000   0.000  -0.000   0.021   0.001  -0.000   0.000  -0.000  -0.000
 -0.000   0.000   0.000   0.016   0.000  -0.000   0.000  -0.000   0.125  -0.000   0.000  -0.000   0.918  -0.000   0.000   0.012
  0.016   0.000  -0.000   0.000  -0.000   0.125   0.000   0.000   0.000  -0.000  -0.000   0.000   0.000   0.918  -0.000   0.000
 -0.000   0.016   0.000  -0.000   0.000  -0.000   0.125   0.000   0.000   0.000   0.000  -0.000   0.000  -0.000   0.918   0.000
 -0.000   0.000   0.000   0.001   0.000   0.000   0.000  -0.000   0.002   0.000   0.000   0.000   0.012   0.000   0.000   0.000
  0.001   0.000  -0.000   0.000  -0.000   0.002   0.000   0.000   0.000  -0.000   0.000  -0.000   0.000   0.012  -0.000  -0.000
 -0.000   0.001   0.000   0.000   0.000  -0.000   0.002  -0.000   0.000  -0.000  -0.000  -0.000   0.000   0.000   0.012   0.000


------------------------ aborting loop because EDIFF is reached ----------------------------------------


    CHARGE:  cpu time    0.6749: real time    0.6747
    FORLOC:  cpu time    0.0330: real time    0.0335
    FORNL :  cpu time    2.0437: real time    2.0433
    STRESS:  cpu time    5.9451: real time    5.9472
    FORCOR:  cpu time    0.0560: real time    0.0554
    FORHAR:  cpu time    0.0510: real time    0.0518
    MIXING:  cpu time    0.0040: real time    0.0040
    OFIELD:  cpu time    0.0000: real time    0.0001

  FORCE on cell =-STRESS in cart. coord.  units (eV):
  Direction    XX          YY          ZZ          XY          YZ          ZX
  --------------------------------------------------------------------------------------
  Alpha Z   878.70267   878.70267   878.70267
  Ewald  -12609.33365-12609.33365-12609.33365    -0.00000     0.00000    -0.00000
  Hartree  8256.61836  8256.61836  8256.61836    -0.00000    -0.00000    -0.00000
  E(xc)   -3108.33249 -3108.33249 -3108.33249     0.00000     0.00000     0.00000
  Local   -3128.77650 -3128.77650 -3128.77650     0.00000    -0.00000     0.00000
  n-local  3128.83247  3136.70724  3128.68791    -9.60234    -3.93542    -3.93542
  augment  3375.50781  3375.50781  3375.50781     0.00000    -0.00000    -0.00000
  Kinetic  3201.99857  3210.02753  3201.21560    -8.25925    -3.81144    -3.81144
  Fock        0.00000     0.00000     0.00000     0.00000     0.00000     0.00000
  -------------------------------------------------------------------------------------
  Total       0.20931     0.20931     0.20931    -0.00000    -0.00000    -0.00000
  in kB       0.18907     0.18907     0.18907    -0.00000    -0.00000    -0.00000
  external pressure =        0.19 kB  Pullay stress =        0.00 kB


 VOLUME and BASIS-vectors are now :
 -----------------------------------------------------------------------------
  energy-cutoff  :      500.00
  volume of cell :     1773.66
      direct lattice vectors                 reciprocal lattice vectors
    12.104782617  0.000000000  0.000000000     0.082611975 -0.000000000 -0.000000000
     0.000000000 12.104782617  0.000000000    -0.000000000  0.082611975  0.000000000
     0.000000000 -0.000000000 12.104782617    -0.000000000  0.000000000  0.082611975

  length of vectors
    12.104782617 12.104782617 12.104782617     0.082611975  0.082611975  0.082611975


 FORCES acting on ions
    electron-ion (+dipol)            ewald-force                    non-local-force                 convergence-correction
 -----------------------------------------------------------------------------------------------
   0.195E-12 -.459E-14 0.260E-13   0.169E-12 0.142E-13 -.266E-13   0.510E-17 0.450E-17 0.838E-17   0.389E-12 0.353E-12 0.722E-12
   0.230E-11 -.366E-13 0.888E-11   0.183E-12 0.142E-13 0.000E+00   0.274E-16 0.218E-16 0.304E-17   -.230E-12 0.341E-12 0.654E-12
   0.239E-12 0.104E-11 0.840E-12   0.179E-12 -.142E-13 0.133E-13   0.423E-17 -.922E-18 -.585E-17   0.369E-12 -.197E-12 -.556E-12
   0.228E-11 -.112E-10 -.386E-11   0.172E-12 -.178E-13 0.275E-13   -.107E-16 0.448E-16 -.117E-16   -.266E-12 -.212E-12 -.657E-12
   0.117E-11 -.275E-13 0.417E-11   0.711E-13 0.284E-13 0.000E+00   0.152E-16 0.113E-16 0.159E-16   -.407E-12 0.330E-12 -.961E-13
   0.348E-11 0.192E-13 0.561E-11   0.103E-12 0.266E-13 0.249E-13   -.228E-17 0.330E-16 0.139E-16   0.233E-12 0.356E-12 -.242E-12
   0.121E-11 0.363E-11 0.367E-11   0.782E-13 -.142E-13 -.231E-13   0.239E-17 0.143E-16 0.143E-16   -.427E-12 -.224E-12 0.125E-12
   0.348E-11 0.157E-11 0.192E-11   0.959E-13 -.515E-13 -.888E-15   0.206E-16 -.136E-18 0.115E-16   0.196E-12 -.223E-12 0.107E-13
   0.121E-11 0.225E-11 0.202E-11   0.986E-13 0.178E-14 -.986E-13   0.434E-18 0.813E-17 0.531E-17   -.416E-12 -.229E-12 -.641E-12
   0.349E-11 -.122E-11 0.975E-11   0.604E-13 -.533E-14 -.933E-13   -.134E-16 0.269E-16 -.426E-17   0.208E-12 -.201E-12 -.762E-12
   0.121E-11 0.950E-11 -.177E-13   0.693E-13 0.888E-14 -.249E-13   0.170E-16 0.263E-16 0.829E-17   -.446E-12 0.120E-12 0.652E-12
   0.342E-11 -.752E-11 -.141E-11   0.755E-13 0.373E-13 -.684E-13   0.241E-16 0.119E-16 0.431E-17   0.204E-12 0.122E-12 0.538E-12
   0.184E-12 0.335E-11 0.855E-12   0.178E-13 0.124E-13 -.435E-13   -.894E-17 0.201E-16 -.783E-17   0.374E-12 0.154E-12 -.692E-12
   0.231E-11 -.307E-11 -.206E-12   -.355E-14 0.160E-13 -.853E-13   0.103E-16 0.207E-16 -.139E-16   -.240E-12 0.108E-12 -.765E-12
   0.171E-12 0.210E-11 0.214E-11   -.240E-13 -.417E-13 -.104E-12   0.970E-17 0.237E-16 0.797E-17   0.369E-12 -.214E-12 0.279E-14
   0.226E-11 -.254E-11 -.770E-11   -.142E-13 -.284E-13 -.160E-13   -.174E-16 0.256E-16 0.941E-17   -.265E-12 -.246E-12 -.601E-13
   0.115E-11 -.135E-11 0.415E-11   -.426E-13 -.142E-13 0.000E+00   0.147E-16 0.591E-17 0.621E-17   -.444E-12 0.125E-12 -.927E-14
   0.349E-11 -.350E-10 0.210E-10   -.213E-13 0.746E-13 0.178E-13   -.791E-17 0.184E-16 -.108E-18   0.190E-12 0.148E-12 -.135E-12
   0.117E-11 -.224E-13 -.318E-11   -.112E-12 0.355E-13 -.213E-13   -.123E-16 0.233E-16 -.962E-17   -.404E-12 0.314E-12 -.530E-12
   0.347E-11 -.376E-13 -.884E-11   -.995E-13 0.799E-14 -.879E-13   0.106E-16 0.122E-16 -.903E-17   0.212E-12 0.343E-12 -.666E-12
   0.221E-12 -.123E-13 0.214E-11   -.210E-12 0.515E-13 -.782E-13   -.154E-16 0.348E-16 0.118E-16   0.377E-12 0.336E-12 0.929E-13
   0.228E-11 -.385E-13 -.595E-11   -.185E-12 0.142E-13 -.426E-13   -.379E-18 0.935E-17 0.331E-17   -.245E-12 0.322E-12 -.449E-14
   0.117E-11 0.165E-11 -.109E-11   0.675E-13 0.284E-13 0.320E-13   -.314E-17 0.217E-16 0.178E-16   -.427E-12 -.244E-12 -.176E-12
   0.346E-11 0.758E-11 -.218E-10   0.835E-13 -.435E-13 -.133E-13   0.338E-16 0.263E-16 0.117E-16   0.222E-12 -.209E-12 -.317E-12
   0.218E-12 0.106E-11 0.314E-11   -.160E-12 0.000E+00 -.195E-13   -.336E-17 0.248E-16 0.167E-16   0.380E-12 -.211E-12 -.811E-13
   0.229E-11 -.306E-11 0.584E-13   -.114E-12 0.142E-13 -.515E-13   0.229E-16 0.201E-16 0.445E-17   -.265E-12 -.226E-12 -.206E-12
   0.215E-12 0.332E-11 0.313E-11   -.188E-12 0.213E-13 0.338E-13   0.157E-16 0.311E-16 0.103E-16   0.366E-12 0.179E-12 -.255E-12
   0.231E-11 0.490E-11 0.122E-10   -.185E-12 0.000E+00 0.284E-13   0.445E-17 0.295E-16 0.143E-16   -.242E-12 0.121E-12 -.353E-12
   0.214E-12 0.209E-11 0.150E-14   -.113E-12 -.355E-14 0.444E-13   0.172E-16 0.185E-16 0.778E-17   0.380E-12 -.240E-12 0.657E-12
   0.233E-11 -.311E-11 0.304E-11   -.773E-13 0.266E-13 -.711E-13   0.162E-16 0.862E-17 0.119E-16   -.276E-12 -.262E-12 0.621E-12
   0.121E-11 -.158E-11 0.155E-11   -.218E-12 -.568E-13 0.888E-15   0.228E-16 0.146E-16 0.166E-16   -.446E-12 -.208E-12 0.758E-12
   0.346E-11 -.211E-10 -.163E-11   -.194E-12 -.107E-13 -.648E-13   0.164E-16 0.136E-16 0.388E-17   0.206E-12 -.212E-12 0.654E-12
   0.125E-06 0.125E-06 0.174E-07   -.142E-13 -.355E-14 0.378E-13   -.127E-16 0.214E-17 0.108E-16   -.526E-14 -.140E-13 -.653E-13
   0.125E-06 0.125E-06 0.174E-07   -.107E-13 -.711E-14 0.373E-13   0.363E-16 -.172E-16 0.430E-16   -.945E-14 -.101E-13 -.511E-13
   0.125E-06 0.125E-06 0.174E-07   0.533E-14 0.485E-14 0.426E-13   -.141E-17 0.304E-17 0.181E-16   0.134E-13 0.472E-13 0.106E-12
   0.125E-06 0.125E-06 0.174E-07   0.355E-14 -.182E-14 0.497E-13   0.218E-16 -.534E-17 0.478E-16   -.170E-13 0.420E-13 0.880E-13
   0.125E-06 0.125E-06 0.174E-07   0.882E-14 -.204E-13 0.235E-13   0.186E-16 0.134E-16 0.244E-17   0.708E-13 -.897E-14 -.812E-13
   0.125E-06 0.125E-06 0.174E-07   -.250E-15 -.533E-14 0.302E-13   0.102E-16 -.840E-18 0.301E-16   -.891E-13 -.289E-13 -.711E-13
   0.125E-06 0.125E-06 0.174E-07   0.757E-14 -.258E-13 0.324E-13   0.281E-16 -.104E-16 0.248E-16   0.877E-13 0.280E-13 0.499E-14
   0.125E-06 0.125E-06 0.174E-07   0.206E-14 -.302E-13 0.306E-13   -.884E-17 -.103E-17 0.255E-17   -.778E-13 0.478E-13 0.122E-13
   0.125E-06 0.125E-06 0.174E-07   0.192E-13 -.311E-13 0.182E-13   -.396E-17 -.358E-17 0.133E-16   0.824E-13 0.338E-13 0.933E-13
   0.125E-06 0.125E-06 0.174E-07   0.124E-14 0.160E-13 0.213E-13   0.332E-16 -.407E-17 0.394E-16   -.869E-13 0.315E-13 0.109E-12
   0.125E-06 0.125E-06 0.174E-07   0.128E-13 -.124E-13 0.391E-13   0.491E-16 -.173E-16 0.384E-16   0.713E-13 -.838E-13 -.537E-13
   0.125E-06 0.125E-06 0.174E-07   -.688E-14 -.266E-13 0.462E-13   -.104E-16 0.973E-17 0.664E-17   -.955E-13 -.771E-13 -.599E-13
   0.125E-06 0.125E-06 0.174E-07   0.133E-13 -.491E-14 0.377E-13   0.196E-16 -.155E-16 0.300E-16   -.569E-14 -.850E-13 0.104E-12
   0.125E-06 0.125E-06 0.174E-07   0.977E-14 -.935E-14 -.102E-13   0.846E-17 0.114E-17 0.930E-17   -.204E-13 -.703E-13 0.116E-12
   0.125E-06 0.125E-06 0.174E-07   0.138E-13 -.311E-14 0.524E-13   -.423E-17 0.314E-17 -.117E-16   -.583E-14 0.296E-13 -.508E-14
   0.125E-06 0.125E-06 0.174E-07   0.173E-13 -.244E-13 0.502E-13   0.205E-16 -.111E-16 0.246E-16   -.349E-15 0.380E-13 0.146E-14
   0.125E-06 0.125E-06 0.174E-07   0.152E-13 -.104E-13 0.444E-13   -.119E-17 0.968E-17 -.360E-17   0.821E-13 -.580E-13 -.246E-15
   0.125E-06 0.125E-06 0.174E-07   0.133E-13 0.119E-13 0.231E-13   0.175E-16 -.112E-16 0.329E-16   -.108E-12 -.812E-13 -.221E-14
   0.125E-06 0.125E-06 0.174E-07   0.263E-13 -.218E-13 0.417E-13   0.310E-16 -.770E-17 0.372E-16   0.925E-13 -.141E-13 0.117E-12
   0.125E-06 0.125E-06 0.174E-07   0.439E-13 -.391E-13 0.320E-13   -.255E-17 0.960E-17 -.726E-17   -.946E-13 -.335E-13 0.947E-13
   0.125E-06 0.125E-06 0.174E-07   0.493E-13 -.115E-13 0.262E-13   0.157E-16 -.482E-17 0.278E-16   0.113E-13 -.161E-13 0.152E-13
   0.125E-06 0.125E-06 0.174E-07   0.542E-13 -.187E-13 0.480E-13   0.136E-17 0.529E-17 0.786E-18   -.248E-13 -.342E-13 0.249E-14
   0.125E-06 0.125E-06 0.174E-07   0.181E-13 0.719E-13 0.440E-13   0.126E-16 -.150E-16 0.189E-16   0.920E-13 0.356E-13 -.557E-13
   0.125E-06 0.125E-06 0.174E-07   -.692E-14 0.426E-13 0.355E-13   0.126E-16 0.897E-17 -.268E-17   -.952E-13 0.200E-13 -.779E-13
   0.125E-06 0.125E-06 0.174E-07   0.266E-13 -.844E-15 0.551E-13   0.954E-17 -.201E-16 0.261E-16   0.676E-14 0.286E-13 -.634E-13
   0.125E-06 0.125E-06 0.174E-07   0.231E-13 -.884E-14 0.338E-13   0.173E-16 0.159E-16 0.000E+00   -.682E-14 0.470E-13 -.743E-13
   0.125E-06 0.125E-06 0.174E-07   0.351E-13 0.116E-13 0.266E-13   0.166E-16 -.596E-18 0.128E-16   -.140E-14 -.673E-13 -.684E-13
   0.125E-06 0.125E-06 0.174E-07   0.298E-13 0.718E-14 0.249E-13   0.249E-16 -.205E-16 0.373E-16   -.119E-13 -.745E-13 -.798E-13
   0.125E-06 0.125E-06 0.174E-07   0.107E-13 -.888E-14 0.413E-13   0.344E-16 -.916E-17 0.525E-16   0.144E-13 0.286E-13 -.500E-13
   0.125E-06 0.125E-06 0.174E-07   0.213E-13 -.888E-14 0.338E-13   -.146E-16 0.976E-18 0.192E-16   -.185E-13 0.285E-13 -.612E-13
   0.125E-06 0.125E-06 0.174E-07   0.425E-13 0.267E-13 0.408E-13   0.434E-18 -.331E-17 0.199E-16   0.900E-13 0.508E-13 -.517E-13
   0.125E-06 0.125E-06 0.174E-07   0.339E-13 0.536E-14 0.462E-13   0.271E-16 -.878E-17 0.513E-16   -.830E-13 0.313E-13 -.619E-13
 -----------------------------------------------------------------------------------------------
   0.400E-05 0.400E-05 0.558E-06   0.839E-13 -.442E-14 0.325E-12   0.623E-15 0.500E-15 0.829E-15   -.912E-12 0.230E-13 -.189E-11
 
 
 POSITION                                       TOTAL-FORCE (eV/Angst)
 -----------------------------------------------------------------------------------
      0.00000      0.00000      0.00000         0.000000     -0.000000      0.000000
      6.05239      0.00000      0.00000         0.000000     -0.000000      0.000000
      0.00000      3.02620      3.02620         0.000000     -0.000000      0.000000
      6.05239      3.02620      3.02620         0.000000     -0.000000      0.000000
      3.02620     -0.00000      9.07859         0.000000     -0.000000      0.000000
      9.07859      0.00000      9.07859         0.000000     -0.000000      0.000000
      3.02620      3.02620      6.05239         0.000000     -0.000000      0.000000
      9.07859      3.02620      6.05239         0.000000     -0.000000      0.000000
      3.02620      6.05239      3.02620         0.000000     -0.000000      0.000000
      9.07859      6.05239      3.02620         0.000000     -0.000000      0.000000
      3.02620      9.07859      0.00000         0.000000     -0.000000      0.000000
      9.07859      9.07859      0.00000         0.000000     -0.000000      0.000000
      0.00000      9.07859      3.02620         0.000000     -0.000000      0.000000
      6.05239      9.07859      3.02620         0.000000     -0.000000      0.000000
      0.00000      6.05239      6.05239         0.000000     -0.000000      0.000000
      6.05239      6.05239      6.05239         0.000000     -0.000000      0.000000
      3.02620      9.07859      6.05239         0.000000     -0.000000      0.000000
      9.07859      9.07859      6.05239         0.000000     -0.000000      0.000000
      3.02620      0.00000      3.02620         0.000000     -0.000000      0.000000
      9.07859      0.00000      3.02620         0.000000     -0.000000      0.000000
      0.00000     -0.00000      6.05239         0.000000     -0.000000      0.000000
      6.05239      0.00000      6.05239         0.000000     -0.000000      0.000000
      3.02620      6.05239      9.07859         0.000000     -0.000000      0.000000
      9.07859      6.05239      9.07859         0.000000     -0.000000      0.000000
      0.00000      3.02620      9.07859         0.000000     -0.000000      0.000000
      6.05239      3.02620      9.07859         0.000000     -0.000000      0.000000
      0.00000      9.07859      9.07859         0.000000     -0.000000      0.000000
      6.05239      9.07859      9.07859         0.000000     -0.000000      0.000000
      0.00000      6.05239      0.00000         0.000000     -0.000000      0.000000
      6.05239      6.05239      0.00000         0.000000     -0.000000      0.000000
      3.02620      3.02620      0.00000         0.000000     -0.000000      0.000000
      9.07859      3.02620      0.00000         0.000000     -0.000000      0.000000
      7.56549      7.56549      7.56549         0.000000      0.000000     -0.000000
      1.51310      7.56549      7.56549        -0.000000      0.000000     -0.000000
      7.56549     10.59168     10.59168         0.000000      0.000000      0.000000
      1.51310     10.59168     10.59168        -0.000000      0.000000     -0.000000
     10.59168      7.56549      4.53929         0.000000      0.000000     -0.000000
      4.53929      7.56549      4.53929        -0.000000      0.000000      0.000000
     10.59168     10.59168      1.51310        -0.000000      0.000000     -0.000000
      4.53929     10.59168      1.51310        -0.000000      0.000000      0.000000
     10.59168      1.51310     10.59168         0.000000      0.000000      0.000000
      4.53929      1.51310     10.59168        -0.000000      0.000000     -0.000000
     10.59168      4.53929      7.56549        -0.000000      0.000000      0.000000
      4.53929      4.53929      7.56549         0.000000      0.000000     -0.000000
      7.56549      4.53929     10.59168         0.000000      0.000000     -0.000000
      1.51310      4.53929     10.59168        -0.000000      0.000000     -0.000000
      7.56549      1.51310      1.51310        -0.000000      0.000000     -0.000000
      1.51310      1.51310      1.51310        -0.000000      0.000000     -0.000000
     10.59168      4.53929      1.51310        -0.000000      0.000000      0.000000
      4.53929      4.53929      1.51310         0.000000      0.000000     -0.000000
     10.59168      7.56549     10.59168        -0.000000      0.000000     -0.000000
      4.53929      7.56549     10.59168        -0.000000      0.000000      0.000000
      7.56549      7.56549      1.51310         0.000000      0.000000     -0.000000
      1.51310      7.56549      1.51310        -0.000000      0.000000      0.000000
     10.59168      1.51310      4.53929        -0.000000      0.000000      0.000000
      4.53929      1.51310      4.53929         0.000000      0.000000     -0.000000
      7.56549     10.59168      4.53929        -0.000000      0.000000      0.000000
      1.51310     10.59168      4.53929         0.000000      0.000000     -0.000000
      7.56549      4.53929      4.53929        -0.000000      0.000000     -0.000000
      1.51310      4.53929      4.53929        -0.000000      0.000000      0.000000
      7.56549      1.51310      7.56549        -0.000000      0.000000      0.000000
      1.51310      1.51310      7.56549        -0.000000      0.000000     -0.000000
     10.59168     10.59168      7.56549        -0.000000      0.000000     -0.000000
      4.53929     10.59168      7.56549        -0.000000      0.000000      0.000000
 -----------------------------------------------------------------------------------
    total drift:                                0.000004      0.000004      0.000001


--------------------------------------------------------------------------------------------------------



  FREE ENERGIE OF THE ION-ELECTRON SYSTEM (eV)
  ---------------------------------------------------
  free  energy   TOTEN  =      -277.60731647 eV

  energy  without entropy=     -277.60731647  energy(sigma->0) =     -277.60731647
 
 d Force = 0.0000000E+00[ 0.000E+00, 0.000E+00]  d Energy = 0.4642763E-02-0.464E-02
 d Force = 0.0000000E+00[ 0.000E+00, 0.000E+00]  d Ewald  =-0.5115514E+02 0.512E+02


--------------------------------------------------------------------------------------------------------


    POTLOK:  cpu time    0.0430: real time    0.0420


--------------------------------------------------------------------------------------------------------




--------------------------------------------------------------------------------------------------------


  
 reached required accuracy - stopping structural energy minimisation
     LOOP+:  cpu time   96.0654: real time   96.1202
    4ORBIT:  cpu time    0.0000: real time    0.0000

 total amount of memory used by VASP on root node    89535. kBytes
========================================================================

   base      :      30000. kBytes
   nonlr-proj:       6520. kBytes
   fftplans  :       6066. kBytes
   grid      :       9092. kBytes
   one-center:        248. kBytes
   wavefun   :      37609. kBytes
 
  
  
 General timing and accounting informations for this job:
 ========================================================
  
                  Total CPU time used (sec):      412.853
                            User time (sec):      402.407
                          System time (sec):       10.446
                         Elapsed time (sec):      413.386
  
                   Maximum memory used (kb):      123444.
                   Average memory used (kb):           0.
  
                          Minor page faults:      3966707
                          Major page faults:            7
                 Voluntary context switches:         2790
