<?xml version="1.0" encoding="ISO-8859-1"?>
<modeling>
 <generator>
  <i name="program" type="string">vasp </i>
  <i name="version" type="string">5.4.1  </i>
  <i name="subversion" type="string">05Feb16 (build Aug 18 2016 13:20:29) complex                          parallel </i>
  <i name="platform" type="string">IFC91_ompi </i>
  <i name="date" type="string">2018 08 03 </i>
  <i name="time" type="string">17:32:06 </i>
 </generator>
 <incar>
  <i type="int" name="ISTART">     0</i>
  <i type="string" name="PREC">normal</i>
  <i type="int" name="IBRION">     2</i>
  <i name="EDIFF">      0.00000100</i>
  <i name="EDIFFG">     -0.02000000</i>
  <i type="int" name="NSW">   100</i>
  <i type="int" name="ISIF">     2</i>
  <i name="ENCUT">    500.00000000</i>
  <i type="string" name="LREAL"> A</i>
  <i type="int" name="ISMEAR">     0</i>
  <i name="SIGMA">      0.01000000</i>
  <i type="logical" name="LWAVE"> F  </i>
  <i type="logical" name="LCHARG"> F  </i>
  <v type="int" name="KPOINT_BSE">    -1     0     0     0</v>
 </incar>
 <kpoints>
  <generation param="Gamma">
   <v type="int" name="divisions">       3        3        3 </v>
   <v name="usershift">      0.00000000       0.00000000       0.00000000 </v>
   <v name="genvec1">      0.33333333       0.00000000       0.00000000 </v>
   <v name="genvec2">      0.00000000       0.33333333       0.00000000 </v>
   <v name="genvec3">      0.00000000       0.00000000       0.33333333 </v>
   <v name="shift">      0.00000000       0.00000000       0.00000000 </v>
  </generation>
  <varray name="kpointlist" >
   <v>       0.00000000       0.00000000       0.00000000 </v>
   <v>       0.33333333       0.00000000       0.00000000 </v>
   <v>       0.33333333       0.33333333       0.00000000 </v>
   <v>       0.33333333       0.33333333       0.33333333 </v>
  </varray>
  <varray name="weights" >
   <v>       0.03703704 </v>
   <v>       0.22222222 </v>
   <v>       0.44444444 </v>
   <v>       0.29629630 </v>
  </varray>
 </kpoints>
 <parameters>
  <separator name="general" >
   <i type="string" name="SYSTEM">unknown system</i>
   <i type="logical" name="LCOMPAT"> F  </i>
  </separator>
  <separator name="electronic" >
   <i type="string" name="PREC">normal</i>
   <i name="ENMAX">    500.00000000</i>
   <i name="ENAUG">    490.69000000</i>
   <i name="EDIFF">      0.00000100</i>
   <i type="int" name="IALGO">    38</i>
   <i type="int" name="IWAVPR">    11</i>
   <i type="int" name="NBANDS">   350</i>
   <i name="NELECT">    576.00000000</i>
   <i type="int" name="TURBO">     0</i>
   <i type="int" name="IRESTART">     0</i>
   <i type="int" name="NREBOOT">     0</i>
   <i type="int" name="NMIN">     0</i>
   <i name="EREF">      0.00000000</i>
   <separator name="electronic smearing" >
    <i type="int" name="ISMEAR">     0</i>
    <i name="SIGMA">      0.01000000</i>
    <i name="KSPACING">      0.50000000</i>
    <i type="logical" name="KGAMMA"> T  </i>
   </separator>
   <separator name="electronic projectors" >
    <i type="logical" name="LREAL"> T  </i>
    <v name="ROPT">     -0.00050000     -0.00050000</v>
    <i type="int" name="LMAXPAW">  -100</i>
    <i type="int" name="LMAXMIX">     2</i>
    <i type="logical" name="NLSPLINE"> F  </i>
   </separator>
   <separator name="electronic startup" >
    <i type="int" name="ISTART">     0</i>
    <i type="int" name="ICHARG">     2</i>
    <i type="int" name="INIWAV">     1</i>
   </separator>
   <separator name="electronic spin" >
    <i type="int" name="ISPIN">     1</i>
    <i type="logical" name="LNONCOLLINEAR"> F  </i>
    <v name="MAGMOM">      1.00000000      1.00000000      1.00000000      1.00000000      1.00000000      1.00000000      1.00000000      1.00000000      1.00000000      1.00000000      1.00000000      1.00000000      1.00000000      1.00000000      1.00000000      1.00000000      1.00000000      1.00000000      1.00000000      1.00000000
      1.00000000      1.00000000      1.00000000      1.00000000      1.00000000      1.00000000      1.00000000      1.00000000      1.00000000      1.00000000      1.00000000      1.00000000      1.00000000      1.00000000      1.00000000      1.00000000      1.00000000      1.00000000      1.00000000      1.00000000
      1.00000000      1.00000000      1.00000000      1.00000000      1.00000000      1.00000000      1.00000000      1.00000000      1.00000000      1.00000000      1.00000000      1.00000000      1.00000000      1.00000000      1.00000000      1.00000000      1.00000000      1.00000000      1.00000000      1.00000000
      1.00000000      1.00000000      1.00000000      1.00000000</v>
    <i name="NUPDOWN">     -1.00000000</i>
    <i type="logical" name="LSORBIT"> F  </i>
    <v name="SAXIS">      0.00000000      0.00000000      1.00000000</v>
    <i type="logical" name="LSPIRAL"> F  </i>
    <v name="QSPIRAL">      0.00000000      0.00000000      0.00000000</v>
    <i type="logical" name="LZEROZ"> F  </i>
   </separator>
   <separator name="electronic exchange-correlation" >
    <i type="logical" name="LASPH"> F  </i>
    <i type="logical" name="LMETAGGA"> F  </i>
   </separator>
   <separator name="electronic convergence" >
    <i type="int" name="NELM">    60</i>
    <i type="int" name="NELMDL">    -5</i>
    <i type="int" name="NELMIN">     2</i>
    <i name="ENINI">    500.00000000</i>
    <separator name="electronic convergence detail" >
     <i type="logical" name="LDIAG"> T  </i>
     <i type="logical" name="LSUBROT"> F  </i>
     <i name="WEIMIN">      0.00100000</i>
     <i name="EBREAK">      0.00000000</i>
     <i name="DEPER">      0.30000000</i>
     <i type="int" name="NRMM">     4</i>
     <i name="TIME">      0.40000000</i>
    </separator>
   </separator>
   <separator name="electronic mixer" >
    <i name="AMIX">      0.40000000</i>
    <i name="BMIX">      1.00000000</i>
    <i name="AMIN">      0.10000000</i>
    <i name="AMIX_MAG">      1.60000000</i>
    <i name="BMIX_MAG">      1.00000000</i>
    <separator name="electronic mixer details" >
     <i type="int" name="IMIX">     4</i>
     <i type="logical" name="MIXFIRST"> F  </i>
     <i type="int" name="MAXMIX">   -45</i>
     <i name="WC">    100.00000000</i>
     <i type="int" name="INIMIX">     1</i>
     <i type="int" name="MIXPRE">     1</i>
     <i type="int" name="MREMOVE">     5</i>
    </separator>
   </separator>
   <separator name="electronic dipolcorrection" >
    <i type="logical" name="LDIPOL"> F  </i>
    <i type="logical" name="LMONO"> F  </i>
    <i type="int" name="IDIPOL">     0</i>
    <i name="EPSILON">      1.00000000</i>
    <v name="DIPOL">   -100.00000000   -100.00000000   -100.00000000</v>
    <i name="EFIELD">      0.00000000</i>
   </separator>
  </separator>
  <separator name="grids" >
   <i type="int" name="NGX">    64</i>
   <i type="int" name="NGY">    64</i>
   <i type="int" name="NGZ">    64</i>
   <i type="int" name="NGXF">   128</i>
   <i type="int" name="NGYF">   128</i>
   <i type="int" name="NGZF">   128</i>
   <i type="logical" name="ADDGRID"> F  </i>
  </separator>
  <separator name="ionic" >
   <i type="int" name="NSW">   100</i>
   <i type="int" name="IBRION">     2</i>
   <i type="int" name="ISIF">     2</i>
   <i name="PSTRESS">      0.00000000</i>
   <i name="EDIFFG">     -0.02000000</i>
   <i type="int" name="NFREE">     1</i>
   <i name="POTIM">      0.50000000</i>
   <i name="SMASS">     -3.00000000</i>
   <i name="SCALEE">      1.00000000</i>
  </separator>
  <separator name="ionic md" >
   <i name="TEBEG">      0.00010000</i>
   <i name="TEEND">      0.00010000</i>
   <i type="int" name="NBLOCK">     1</i>
   <i type="int" name="KBLOCK">   100</i>
   <i type="int" name="NPACO">   256</i>
   <i name="APACO">     16.00000000</i>
  </separator>
  <separator name="symmetry" >
   <i type="int" name="ISYM">     2</i>
   <i name="SYMPREC">      0.00001000</i>
  </separator>
  <separator name="dos" >
   <i type="logical" name="LORBIT"> F  </i>
   <v name="RWIGS">     -1.00000000     -1.00000000</v>
   <i type="int" name="NEDOS">   301</i>
   <i name="EMIN">     10.00000000</i>
   <i name="EMAX">    -10.00000000</i>
   <i name="EFERMI">      0.00000000</i>
  </separator>
  <separator name="writing" >
   <i type="int" name="NWRITE">     2</i>
   <i type="logical" name="LWAVE"> F  </i>
   <i type="logical" name="LCHARG"> F  </i>
   <i type="logical" name="LPARD"> F  </i>
   <i type="logical" name="LVTOT"> F  </i>
   <i type="logical" name="LVHAR"> F  </i>
   <i type="logical" name="LELF"> F  </i>
   <i type="logical" name="LOPTICS"> F  </i>
   <v name="STM">      0.00000000      0.00000000      0.00000000      0.00000000      0.00000000      0.00000000      0.00000000</v>
  </separator>
  <separator name="performance" >
   <i type="int" name="NPAR">     7</i>
   <i type="int" name="NSIM">     4</i>
   <i type="int" name="NBLK">    -1</i>
   <i type="logical" name="LPLANE"> T  </i>
   <i type="logical" name="LSCALAPACK"> T  </i>
   <i type="logical" name="LSCAAWARE"> F  </i>
   <i type="logical" name="LSCALU"> F  </i>
   <i type="logical" name="LASYNC"> F  </i>
   <i type="logical" name="LORBITALREAL"> F  </i>
  </separator>
  <separator name="miscellaneous" >
   <i type="int" name="IDIOT">     3</i>
   <i type="logical" name="LMUSIC"> F  </i>
   <v name="POMASS">     69.72300000    121.75000000</v>
   <v name="DARWINR">      0.00000000      0.00000000</v>
   <v name="DARWINV">      1.00000000      1.00000000</v>
   <i type="logical" name="LCORR"> T  </i>
  </separator>
  <i type="logical" name="GGA_COMPAT"> T  </i>
  <i type="logical" name="LBERRY"> F  </i>
  <i type="int" name="ICORELEVEL">     0</i>
  <i type="logical" name="LDAU"> F  </i>
  <i type="int" name="I_CONSTRAINED_M">     0</i>
  <separator name="electronic exchange-correlation" >
   <i type="string" name="GGA">--</i>
   <i type="int" name="VOSKOWN">     0</i>
   <i type="logical" name="LHFCALC"> F  </i>
   <i type="string" name="PRECFOCK"></i>
   <i type="logical" name="LSYMGRAD"> F  </i>
   <i type="logical" name="LHFONE"> F  </i>
   <i type="logical" name="LRHFCALC"> F  </i>
   <i type="logical" name="LTHOMAS"> F  </i>
   <i type="logical" name="LMODELHF"> F  </i>
   <i name="ENCUT4O">     -1.00000000</i>
   <i type="int" name="EXXOEP">     0</i>
   <i type="int" name="FOURORBIT">     0</i>
   <i name="AEXX">      0.00000000</i>
   <i name="HFALPHA">      0.00000000</i>
   <i name="MCALPHA">      0.00000000</i>
   <i name="ALDAX">      1.00000000</i>
   <i name="AGGAX">      1.00000000</i>
   <i name="ALDAC">      1.00000000</i>
   <i name="AGGAC">      1.00000000</i>
   <i type="int" name="NKREDX">     1</i>
   <i type="int" name="NKREDY">     1</i>
   <i type="int" name="NKREDZ">     1</i>
   <i type="logical" name="SHIFTRED"> F  </i>
   <i type="logical" name="ODDONLY"> F  </i>
   <i type="logical" name="EVENONLY"> F  </i>
   <i type="int" name="LMAXFOCK">     0</i>
   <i type="int" name="NMAXFOCKAE">     0</i>
   <i type="logical" name="LFOCKAEDFT"> F  </i>
   <i name="HFSCREEN">      0.00000000</i>
   <i name="HFSCREENC">      0.00000000</i>
   <i type="int" name="NBANDSGWLOW">     0</i>
  </separator>
  <separator name="vdW DFT" >
   <i type="logical" name="LUSE_VDW"> F  </i>
   <i name="Zab_VDW">     -0.84910000</i>
   <i name="PARAM1">      0.12340000</i>
   <i name="PARAM2">      1.00000000</i>
   <i name="PARAM3">      0.00000000</i>
  </separator>
  <separator name="model GW" >
   <i type="int" name="MODEL_GW">     0</i>
   <i name="MODEL_EPS0">     13.22732970</i>
   <i name="MODEL_ALPHA">      1.00000000</i>
  </separator>
  <separator name="linear response parameters" >
   <i type="logical" name="LEPSILON"> F  </i>
   <i type="logical" name="LRPA"> F  </i>
   <i type="logical" name="LNABLA"> F  </i>
   <i type="logical" name="LVEL"> F  </i>
   <i type="int" name="KINTER">     0</i>
   <i name="CSHIFT">      0.10000000</i>
   <i name="OMEGAMAX">     -1.00000000</i>
   <i name="DEG_THRESHOLD">      0.00200000</i>
  </separator>
  <separator name="orbital magnetization" >
   <i type="logical" name="NUCIND"> F  </i>
   <v name="MAGPOS">      0.00000000      0.00000000      0.00000000</v>
   <i type="logical" name="LNICSALL"> T  </i>
   <i type="logical" name="ORBITALMAG"> F  </i>
   <i type="logical" name="LMAGBLOCH"> F  </i>
   <i type="logical" name="LCHIMAG"> F  </i>
   <i type="logical" name="LGAUGE"> T  </i>
   <i type="int" name="MAGATOM">     0</i>
   <v name="MAGDIPOL">      0.00000000      0.00000000      0.00000000</v>
   <v name="AVECCONST">      0.00000000      0.00000000      0.00000000</v>
  </separator>
  <separator name="response functions" >
   <i type="logical" name="LADDER"> F  </i>
   <i type="logical" name="LFXC"> F  </i>
   <i type="logical" name="LHARTREE"> T  </i>
   <i type="int" name="IBSE">     0</i>
   <v type="int" name="KPOINT">    -1     0     0     0</v>
   <i type="logical" name="LTCTE"> F  </i>
   <i type="logical" name="LTETE"> F  </i>
   <i type="logical" name="LTRIPLET"> F  </i>
   <i type="logical" name="LFXCEPS"> F  </i>
   <i type="logical" name="LFXHEG"> F  </i>
   <i type="int" name="NATURALO">     0</i>
   <i type="logical" name="L2ORDER"> F  </i>
   <i type="logical" name="LUSEW"> F  </i>
   <i name="ENCUTGW">     -2.00000000</i>
   <i name="ENCUTGWSOFT">     -2.00000000</i>
   <i name="ENCUTLF">     -1.00000000</i>
   <i type="int" name="LMAXMP2">    -1</i>
   <i name="SCISSOR">      0.00000000</i>
   <i type="int" name="NOMEGA">     0</i>
   <i type="int" name="NOMEGAR">     0</i>
   <i type="int" name="NBANDSGW">    -1</i>
   <i type="int" name="NBANDSO">    -1</i>
   <i type="int" name="NBANDSV">    -1</i>
   <i type="int" name="NELM">     1</i>
   <i type="int" name="NELMHF">     1</i>
   <i type="int" name="DIM">     3</i>
   <i type="int" name="ANTIRES">     0</i>
   <i name="OMEGAMAX">    -30.00000000</i>
   <i name="OMEGAMIN">    -30.00000000</i>
   <i name="OMEGATL">   -200.00000000</i>
   <i type="int" name="OMEGAGRID">     0</i>
   <i name="CSHIFT">     -0.10000000</i>
   <i type="logical" name="SELFENERGY"> F  </i>
   <i type="logical" name="LSPECTRAL"> F  </i>
   <i type="logical" name="LSPECTRALGW"> F  </i>
   <i type="logical" name="LSINGLES"> F  </i>
   <i type="logical" name="LFERMIGW"> F  </i>
   <i type="logical" name="ODDONLYGW"> F  </i>
   <i type="logical" name="EVENONLYGW"> F  </i>
   <i type="int" name="NKREDLFX">     1</i>
   <i type="int" name="NKREDLFY">     1</i>
   <i type="int" name="NKREDLFZ">     1</i>
   <i type="int" name="MAXMEM">  1800</i>
   <i type="int" name="TELESCOPE">     0</i>
   <i type="int" name="TAUPAR">     1</i>
   <i type="int" name="OMEGAPAR">    -1</i>
   <i name="LAMBDA">      1.00000000</i>
  </separator>
  <separator name="External order field" >
   <i name="OFIELD_KAPPA">      0.00000000</i>
   <v name="OFIELD_K">      0.00000000      0.00000000      0.00000000</v>
   <i name="OFIELD_Q6_NEAR">      0.00000000</i>
   <i name="OFIELD_Q6_FAR">      0.00000000</i>
   <i name="OFIELD_A">      0.00000000</i>
  </separator>
 </parameters>
 <atominfo>
  <atoms>      64 </atoms>
  <types>       2 </types>
  <array name="atoms" >
   <dimension dim="1">ion</dimension>
   <field type="string">element</field>
   <field type="int">atomtype</field>
   <set>
    <rc><c>Ga</c><c>   1</c></rc>
    <rc><c>Ga</c><c>   1</c></rc>
    <rc><c>Ga</c><c>   1</c></rc>
    <rc><c>Ga</c><c>   1</c></rc>
    <rc><c>Ga</c><c>   1</c></rc>
    <rc><c>Ga</c><c>   1</c></rc>
    <rc><c>Ga</c><c>   1</c></rc>
    <rc><c>Ga</c><c>   1</c></rc>
    <rc><c>Ga</c><c>   1</c></rc>
    <rc><c>Ga</c><c>   1</c></rc>
    <rc><c>Ga</c><c>   1</c></rc>
    <rc><c>Ga</c><c>   1</c></rc>
    <rc><c>Ga</c><c>   1</c></rc>
    <rc><c>Ga</c><c>   1</c></rc>
    <rc><c>Ga</c><c>   1</c></rc>
    <rc><c>Ga</c><c>   1</c></rc>
    <rc><c>Ga</c><c>   1</c></rc>
    <rc><c>Ga</c><c>   1</c></rc>
    <rc><c>Ga</c><c>   1</c></rc>
    <rc><c>Ga</c><c>   1</c></rc>
    <rc><c>Ga</c><c>   1</c></rc>
    <rc><c>Ga</c><c>   1</c></rc>
    <rc><c>Ga</c><c>   1</c></rc>
    <rc><c>Ga</c><c>   1</c></rc>
    <rc><c>Ga</c><c>   1</c></rc>
    <rc><c>Ga</c><c>   1</c></rc>
    <rc><c>Ga</c><c>   1</c></rc>
    <rc><c>Ga</c><c>   1</c></rc>
    <rc><c>Ga</c><c>   1</c></rc>
    <rc><c>Ga</c><c>   1</c></rc>
    <rc><c>Ga</c><c>   1</c></rc>
    <rc><c>Ga</c><c>   1</c></rc>
    <rc><c>Sb</c><c>   2</c></rc>
    <rc><c>Sb</c><c>   2</c></rc>
    <rc><c>Sb</c><c>   2</c></rc>
    <rc><c>Sb</c><c>   2</c></rc>
    <rc><c>Sb</c><c>   2</c></rc>
    <rc><c>Sb</c><c>   2</c></rc>
    <rc><c>Sb</c><c>   2</c></rc>
    <rc><c>Sb</c><c>   2</c></rc>
    <rc><c>Sb</c><c>   2</c></rc>
    <rc><c>Sb</c><c>   2</c></rc>
    <rc><c>Sb</c><c>   2</c></rc>
    <rc><c>Sb</c><c>   2</c></rc>
    <rc><c>Sb</c><c>   2</c></rc>
    <rc><c>Sb</c><c>   2</c></rc>
    <rc><c>Sb</c><c>   2</c></rc>
    <rc><c>Sb</c><c>   2</c></rc>
    <rc><c>Sb</c><c>   2</c></rc>
    <rc><c>Sb</c><c>   2</c></rc>
    <rc><c>Sb</c><c>   2</c></rc>
    <rc><c>Sb</c><c>   2</c></rc>
    <rc><c>Sb</c><c>   2</c></rc>
    <rc><c>Sb</c><c>   2</c></rc>
    <rc><c>Sb</c><c>   2</c></rc>
    <rc><c>Sb</c><c>   2</c></rc>
    <rc><c>Sb</c><c>   2</c></rc>
    <rc><c>Sb</c><c>   2</c></rc>
    <rc><c>Sb</c><c>   2</c></rc>
    <rc><c>Sb</c><c>   2</c></rc>
    <rc><c>Sb</c><c>   2</c></rc>
    <rc><c>Sb</c><c>   2</c></rc>
    <rc><c>Sb</c><c>   2</c></rc>
    <rc><c>Sb</c><c>   2</c></rc>
   </set>
  </array>
  <array name="atomtypes" >
   <dimension dim="1">type</dimension>
   <field type="int">atomspertype</field>
   <field type="string">element</field>
   <field>mass</field>
   <field>valence</field>
   <field type="string">pseudopotential</field>
   <set>
    <rc><c>  32</c><c>Ga</c><c>     69.72300000</c><c>     13.00000000</c><c>  PAW Ga_d 06Jul2010                    </c></rc>
    <rc><c>  32</c><c>Sb</c><c>    121.75000000</c><c>      5.00000000</c><c>  PAW Sb 04Feb1998                      </c></rc>
   </set>
  </array>
 </atominfo>
 <structure name="initialpos" >
  <crystal>
   <varray name="basis" >
    <v>      11.21588723       0.00000000       0.00000000 </v>
    <v>       0.00000000      11.21588723       0.00000000 </v>
    <v>       0.00000000       0.00000000      11.21588723 </v>
   </varray>
   <i name="volume">   1410.91516844 </i>
   <varray name="rec_basis" >
    <v>       0.08915924       0.00000000       0.00000000 </v>
    <v>       0.00000000       0.08915924       0.00000000 </v>
    <v>       0.00000000       0.00000000       0.08915924 </v>
   </varray>
  </crystal>
  <varray name="positions" >
   <v>       0.00000000       0.00000000       0.00000000 </v>
   <v>       0.50000000       0.00000000       0.00000000 </v>
   <v>       0.00000000       0.25000000       0.25000000 </v>
   <v>       0.50000000       0.25000000       0.25000000 </v>
   <v>       0.25000000       0.00000000       0.75000000 </v>
   <v>       0.75000000       0.00000000       0.75000000 </v>
   <v>       0.25000000       0.25000000       0.50000000 </v>
   <v>       0.75000000       0.25000000       0.50000000 </v>
   <v>       0.25000000       0.50000000       0.25000000 </v>
   <v>       0.75000000       0.50000000       0.25000000 </v>
   <v>       0.25000000       0.75000000       0.00000000 </v>
   <v>       0.75000000       0.75000000       0.00000000 </v>
   <v>       0.00000000       0.75000000       0.25000000 </v>
   <v>       0.50000000       0.75000000       0.25000000 </v>
   <v>       0.00000000       0.50000000       0.50000000 </v>
   <v>       0.50000000       0.50000000       0.50000000 </v>
   <v>       0.25000000       0.75000000       0.50000000 </v>
   <v>       0.75000000       0.75000000       0.50000000 </v>
   <v>       0.25000000       0.00000000       0.25000000 </v>
   <v>       0.75000000       0.00000000       0.25000000 </v>
   <v>       0.00000000       0.00000000       0.50000000 </v>
   <v>       0.50000000       0.00000000       0.50000000 </v>
   <v>       0.25000000       0.50000000       0.75000000 </v>
   <v>       0.75000000       0.50000000       0.75000000 </v>
   <v>       0.00000000       0.25000000       0.75000000 </v>
   <v>       0.50000000       0.25000000       0.75000000 </v>
   <v>       0.00000000       0.75000000       0.75000000 </v>
   <v>       0.50000000       0.75000000       0.75000000 </v>
   <v>       0.00000000       0.50000000       0.00000000 </v>
   <v>       0.50000000       0.50000000       0.00000000 </v>
   <v>       0.25000000       0.25000000       0.00000000 </v>
   <v>       0.75000000       0.25000000       0.00000000 </v>
   <v>       0.62500000       0.62500000       0.62500000 </v>
   <v>       0.12500000       0.62500000       0.62500000 </v>
   <v>       0.62500000       0.87500000       0.87500000 </v>
   <v>       0.12500000       0.87500000       0.87500000 </v>
   <v>       0.87500000       0.62500000       0.37500000 </v>
   <v>       0.37500000       0.62500000       0.37500000 </v>
   <v>       0.87500000       0.87500000       0.12500000 </v>
   <v>       0.37500000       0.87500000       0.12500000 </v>
   <v>       0.87500000       0.12500000       0.87500000 </v>
   <v>       0.37500000       0.12500000       0.87500000 </v>
   <v>       0.87500000       0.37500000       0.62500000 </v>
   <v>       0.37500000       0.37500000       0.62500000 </v>
   <v>       0.62500000       0.37500000       0.87500000 </v>
   <v>       0.12500000       0.37500000       0.87500000 </v>
   <v>       0.62500000       0.12500000       0.12500000 </v>
   <v>       0.12500000       0.12500000       0.12500000 </v>
   <v>       0.87500000       0.37500000       0.12500000 </v>
   <v>       0.37500000       0.37500000       0.12500000 </v>
   <v>       0.87500000       0.62500000       0.87500000 </v>
   <v>       0.37500000       0.62500000       0.87500000 </v>
   <v>       0.62500000       0.62500000       0.12500000 </v>
   <v>       0.12500000       0.62500000       0.12500000 </v>
   <v>       0.87500000       0.12500000       0.37500000 </v>
   <v>       0.37500000       0.12500000       0.37500000 </v>
   <v>       0.62500000       0.87500000       0.37500000 </v>
   <v>       0.12500000       0.87500000       0.37500000 </v>
   <v>       0.62500000       0.37500000       0.37500000 </v>
   <v>       0.12500000       0.37500000       0.37500000 </v>
   <v>       0.62500000       0.12500000       0.62500000 </v>
   <v>       0.12500000       0.12500000       0.62500000 </v>
   <v>       0.87500000       0.87500000       0.62500000 </v>
   <v>       0.37500000       0.87500000       0.62500000 </v>
  </varray>
 </structure>
 <calculation>
  <scstep>
   <time name="dav">    7.44    7.45</time>
   <time name="total">    7.48    7.55</time>
   <energy>
    <i name="alphaZ">   1104.61777986 </i>
    <i name="ewald"> -40825.76174207 </i>
    <i name="hartreedc"> -23172.34275693 </i>
    <i name="XCdc">     -5.11992433 </i>
    <i name="pawpsdc">  56547.11674902 </i>
    <i name="pawaedc"> -65584.27798732 </i>
    <i name="eentropy">     -0.00158893 </i>
    <i name="bandstr">   4878.78286020 </i>
    <i name="atom">  73796.62808581 </i>
    <i name="e_fr_energy">   6739.64147531 </i>
    <i name="e_wo_entrp">   6739.64306423 </i>
    <i name="e_0_energy">   6739.64226977 </i>
   </energy>
  </scstep>
  <scstep>
   <time name="dav">    7.48    7.49</time>
   <time name="total">    7.49    7.49</time>
   <energy>
    <i name="e_fr_energy">   1463.01108653 </i>
    <i name="e_wo_entrp">   1463.01323338 </i>
    <i name="e_0_energy">   1463.01215996 </i>
   </energy>
  </scstep>
  <scstep>
   <time name="dav">    8.70    8.70</time>
   <time name="total">    8.70    8.70</time>
   <energy>
    <i name="e_fr_energy">    -87.04916320 </i>
    <i name="e_wo_entrp">    -87.04916320 </i>
    <i name="e_0_energy">    -87.04916320 </i>
   </energy>
  </scstep>
  <scstep>
   <time name="dav">   10.94   10.94</time>
   <time name="total">   10.94   10.94</time>
   <energy>
    <i name="e_fr_energy">   -249.84505062 </i>
    <i name="e_wo_entrp">   -249.84505062 </i>
    <i name="e_0_energy">   -249.84505062 </i>
   </energy>
  </scstep>
  <scstep>
   <time name="dav">   10.16   10.17</time>
   <time name="total">   10.58   10.59</time>
   <energy>
    <i name="e_fr_energy">   -263.69002442 </i>
    <i name="e_wo_entrp">   -263.69002442 </i>
    <i name="e_0_energy">   -263.69002442 </i>
   </energy>
  </scstep>
  <scstep>
   <time name="dav">    8.83    8.83</time>
   <time name="total">    9.27    9.28</time>
   <energy>
    <i name="e_fr_energy">   -259.04275159 </i>
    <i name="e_wo_entrp">   -259.04275159 </i>
    <i name="e_0_energy">   -259.04275159 </i>
   </energy>
  </scstep>
  <scstep>
   <time name="dav">    8.94    8.95</time>
   <time name="total">    9.39    9.41</time>
   <energy>
    <i name="e_fr_energy">   -257.18443361 </i>
    <i name="e_wo_entrp">   -257.18443361 </i>
    <i name="e_0_energy">   -257.18443361 </i>
   </energy>
  </scstep>
  <scstep>
   <time name="dav">    8.51    8.52</time>
   <time name="total">    8.96    8.97</time>
   <energy>
    <i name="e_fr_energy">   -257.21295476 </i>
    <i name="e_wo_entrp">   -257.21295476 </i>
    <i name="e_0_energy">   -257.21295476 </i>
   </energy>
  </scstep>
  <scstep>
   <time name="dav">    9.64    9.65</time>
   <time name="total">   10.09   10.09</time>
   <energy>
    <i name="e_fr_energy">   -257.21129001 </i>
    <i name="e_wo_entrp">   -257.21129001 </i>
    <i name="e_0_energy">   -257.21129001 </i>
   </energy>
  </scstep>
  <scstep>
   <time name="dav">    9.20    9.21</time>
   <time name="total">    9.67    9.68</time>
   <energy>
    <i name="e_fr_energy">   -257.21028496 </i>
    <i name="e_wo_entrp">   -257.21028496 </i>
    <i name="e_0_energy">   -257.21028496 </i>
   </energy>
  </scstep>
  <scstep>
   <time name="dav">   10.65   10.65</time>
   <time name="total">   11.10   11.11</time>
   <energy>
    <i name="e_fr_energy">   -257.21033252 </i>
    <i name="e_wo_entrp">   -257.21033252 </i>
    <i name="e_0_energy">   -257.21033252 </i>
   </energy>
  </scstep>
  <scstep>
   <time name="dav">    9.23    9.24</time>
   <time name="total">    9.68    9.68</time>
   <energy>
    <i name="e_fr_energy">   -257.21031989 </i>
    <i name="e_wo_entrp">   -257.21031989 </i>
    <i name="e_0_energy">   -257.21031989 </i>
   </energy>
  </scstep>
  <scstep>
   <time name="dav">    8.94    8.95</time>
   <time name="total">    9.41    9.41</time>
   <energy>
    <i name="e_fr_energy">   -257.21031746 </i>
    <i name="e_wo_entrp">   -257.21031746 </i>
    <i name="e_0_energy">   -257.21031746 </i>
   </energy>
  </scstep>
  <scstep>
   <time name="dav">    7.14    7.55</time>
   <time name="total">    7.58    8.00</time>
   <energy>
    <i name="e_fr_energy">   -257.21031618 </i>
    <i name="e_wo_entrp">   -257.21031618 </i>
    <i name="e_0_energy">   -257.21031618 </i>
   </energy>
  </scstep>
  <scstep>
   <time name="dav">    5.45    5.46</time>
   <time name="total">    5.49    5.49</time>
   <energy>
    <i name="alphaZ">   1104.61777986 </i>
    <i name="ewald"> -40825.76174207 </i>
    <i name="hartreedc"> -23114.91878762 </i>
    <i name="XCdc">     -5.61239710 </i>
    <i name="pawpsdc">  77896.63666672 </i>
    <i name="pawaedc"> -86984.38764428 </i>
    <i name="eentropy">     -0.00000000 </i>
    <i name="bandstr">  -2124.41227760 </i>
    <i name="atom">  73796.62808581 </i>
    <i name="e_fr_energy">   -257.21031627 </i>
    <i name="e_wo_entrp">   -257.21031627 </i>
    <i name="e_0_energy">   -257.21031627 </i>
   </energy>
  </scstep>
  <structure>
   <crystal>
    <varray name="basis" >
     <v>      11.21588723       0.00000000       0.00000000 </v>
     <v>       0.00000000      11.21588723       0.00000000 </v>
     <v>       0.00000000       0.00000000      11.21588723 </v>
    </varray>
    <i name="volume">   1410.91516844 </i>
    <varray name="rec_basis" >
     <v>       0.08915924       0.00000000       0.00000000 </v>
     <v>       0.00000000       0.08915924       0.00000000 </v>
     <v>       0.00000000       0.00000000       0.08915924 </v>
    </varray>
   </crystal>
   <varray name="positions" >
    <v>       0.00000000       0.00000000       0.00000000 </v>
    <v>       0.50000000       0.00000000       0.00000000 </v>
    <v>       0.00000000       0.25000000       0.25000000 </v>
    <v>       0.50000000       0.25000000       0.25000000 </v>
    <v>       0.25000000       0.00000000       0.75000000 </v>
    <v>       0.75000000       0.00000000       0.75000000 </v>
    <v>       0.25000000       0.25000000       0.50000000 </v>
    <v>       0.75000000       0.25000000       0.50000000 </v>
    <v>       0.25000000       0.50000000       0.25000000 </v>
    <v>       0.75000000       0.50000000       0.25000000 </v>
    <v>       0.25000000       0.75000000       0.00000000 </v>
    <v>       0.75000000       0.75000000       0.00000000 </v>
    <v>       0.00000000       0.75000000       0.25000000 </v>
    <v>       0.50000000       0.75000000       0.25000000 </v>
    <v>       0.00000000       0.50000000       0.50000000 </v>
    <v>       0.50000000       0.50000000       0.50000000 </v>
    <v>       0.25000000       0.75000000       0.50000000 </v>
    <v>       0.75000000       0.75000000       0.50000000 </v>
    <v>       0.25000000       0.00000000       0.25000000 </v>
    <v>       0.75000000       0.00000000       0.25000000 </v>
    <v>       0.00000000       0.00000000       0.50000000 </v>
    <v>       0.50000000       0.00000000       0.50000000 </v>
    <v>       0.25000000       0.50000000       0.75000000 </v>
    <v>       0.75000000       0.50000000       0.75000000 </v>
    <v>       0.00000000       0.25000000       0.75000000 </v>
    <v>       0.50000000       0.25000000       0.75000000 </v>
    <v>       0.00000000       0.75000000       0.75000000 </v>
    <v>       0.50000000       0.75000000       0.75000000 </v>
    <v>       0.00000000       0.50000000       0.00000000 </v>
    <v>       0.50000000       0.50000000       0.00000000 </v>
    <v>       0.25000000       0.25000000       0.00000000 </v>
    <v>       0.75000000       0.25000000       0.00000000 </v>
    <v>       0.62500000       0.62500000       0.62500000 </v>
    <v>       0.12500000       0.62500000       0.62500000 </v>
    <v>       0.62500000       0.87500000       0.87500000 </v>
    <v>       0.12500000       0.87500000       0.87500000 </v>
    <v>       0.87500000       0.62500000       0.37500000 </v>
    <v>       0.37500000       0.62500000       0.37500000 </v>
    <v>       0.87500000       0.87500000       0.12500000 </v>
    <v>       0.37500000       0.87500000       0.12500000 </v>
    <v>       0.87500000       0.12500000       0.87500000 </v>
    <v>       0.37500000       0.12500000       0.87500000 </v>
    <v>       0.87500000       0.37500000       0.62500000 </v>
    <v>       0.37500000       0.37500000       0.62500000 </v>
    <v>       0.62500000       0.37500000       0.87500000 </v>
    <v>       0.12500000       0.37500000       0.87500000 </v>
    <v>       0.62500000       0.12500000       0.12500000 </v>
    <v>       0.12500000       0.12500000       0.12500000 </v>
    <v>       0.87500000       0.37500000       0.12500000 </v>
    <v>       0.37500000       0.37500000       0.12500000 </v>
    <v>       0.87500000       0.62500000       0.87500000 </v>
    <v>       0.37500000       0.62500000       0.87500000 </v>
    <v>       0.62500000       0.62500000       0.12500000 </v>
    <v>       0.12500000       0.62500000       0.12500000 </v>
    <v>       0.87500000       0.12500000       0.37500000 </v>
    <v>       0.37500000       0.12500000       0.37500000 </v>
    <v>       0.62500000       0.87500000       0.37500000 </v>
    <v>       0.12500000       0.87500000       0.37500000 </v>
    <v>       0.62500000       0.37500000       0.37500000 </v>
    <v>       0.12500000       0.37500000       0.37500000 </v>
    <v>       0.62500000       0.12500000       0.62500000 </v>
    <v>       0.12500000       0.12500000       0.62500000 </v>
    <v>       0.87500000       0.87500000       0.62500000 </v>
    <v>       0.37500000       0.87500000       0.62500000 </v>
   </varray>
  </structure>
  <varray name="forces" >
   <v>       0.00000000       0.00000000      -0.00000000 </v>
   <v>      -0.00000000      -0.00000000      -0.00000000 </v>
   <v>       0.00000000       0.00000000       0.00000000 </v>
   <v>      -0.00000000      -0.00000000       0.00000000 </v>
   <v>       0.00000000       0.00000000       0.00000000 </v>
   <v>      -0.00000000       0.00000000       0.00000000 </v>
   <v>      -0.00000000      -0.00000000      -0.00000000 </v>
   <v>       0.00000000       0.00000000       0.00000000 </v>
   <v>       0.00000000      -0.00000000       0.00000000 </v>
   <v>      -0.00000000       0.00000000      -0.00000000 </v>
   <v>      -0.00000000      -0.00000000      -0.00000000 </v>
   <v>       0.00000000       0.00000000      -0.00000000 </v>
   <v>      -0.00000000      -0.00000000       0.00000000 </v>
   <v>       0.00000000       0.00000000       0.00000000 </v>
   <v>       0.00000000      -0.00000000      -0.00000000 </v>
   <v>      -0.00000000      -0.00000000      -0.00000000 </v>
   <v>       0.00000000       0.00000000       0.00000000 </v>
   <v>      -0.00000000      -0.00000000      -0.00000000 </v>
   <v>      -0.00000000       0.00000000       0.00000000 </v>
   <v>      -0.00000000       0.00000000      -0.00000000 </v>
   <v>       0.00000000      -0.00000000      -0.00000000 </v>
   <v>       0.00000000       0.00000000      -0.00000000 </v>
   <v>       0.00000000      -0.00000000       0.00000000 </v>
   <v>       0.00000000       0.00000000       0.00000000 </v>
   <v>      -0.00000000       0.00000000       0.00000000 </v>
   <v>       0.00000000      -0.00000000       0.00000000 </v>
   <v>       0.00000000      -0.00000000       0.00000000 </v>
   <v>       0.00000000      -0.00000000       0.00000000 </v>
   <v>      -0.00000000      -0.00000000      -0.00000000 </v>
   <v>       0.00000000       0.00000000      -0.00000000 </v>
   <v>       0.00000000       0.00000000      -0.00000000 </v>
   <v>      -0.00000000      -0.00000000      -0.00000000 </v>
   <v>      -0.00000000       0.00000000      -0.00000000 </v>
   <v>      -0.00000000      -0.00000000      -0.00000000 </v>
   <v>      -0.00000000      -0.00000000      -0.00000000 </v>
   <v>      -0.00000000      -0.00000000      -0.00000000 </v>
   <v>      -0.00000000      -0.00000000      -0.00000000 </v>
   <v>      -0.00000000      -0.00000000      -0.00000000 </v>
   <v>      -0.00000000      -0.00000000      -0.00000000 </v>
   <v>      -0.00000000      -0.00000000      -0.00000000 </v>
   <v>      -0.00000000      -0.00000000      -0.00000000 </v>
   <v>      -0.00000000      -0.00000000      -0.00000000 </v>
   <v>      -0.00000000      -0.00000000      -0.00000000 </v>
   <v>      -0.00000000       0.00000000      -0.00000000 </v>
   <v>      -0.00000000      -0.00000000      -0.00000000 </v>
   <v>      -0.00000000       0.00000000      -0.00000000 </v>
   <v>      -0.00000000       0.00000000      -0.00000000 </v>
   <v>      -0.00000000      -0.00000000      -0.00000000 </v>
   <v>      -0.00000000      -0.00000000      -0.00000000 </v>
   <v>      -0.00000000      -0.00000000      -0.00000000 </v>
   <v>      -0.00000000       0.00000000      -0.00000000 </v>
   <v>      -0.00000000      -0.00000000      -0.00000000 </v>
   <v>      -0.00000000      -0.00000000      -0.00000000 </v>
   <v>      -0.00000000      -0.00000000      -0.00000000 </v>
   <v>      -0.00000000      -0.00000000      -0.00000000 </v>
   <v>      -0.00000000       0.00000000      -0.00000000 </v>
   <v>      -0.00000000      -0.00000000      -0.00000000 </v>
   <v>      -0.00000000       0.00000000      -0.00000000 </v>
   <v>      -0.00000000       0.00000000      -0.00000000 </v>
   <v>      -0.00000000      -0.00000000      -0.00000000 </v>
   <v>      -0.00000000      -0.00000000      -0.00000000 </v>
   <v>      -0.00000000      -0.00000000      -0.00000000 </v>
   <v>      -0.00000000      -0.00000000      -0.00000000 </v>
   <v>      -0.00000000      -0.00000000      -0.00000000 </v>
  </varray>
  <varray name="stress" >
   <v>     222.08810241      -0.00000000       0.00000000 </v>
   <v>      -0.00000000     222.08810241      -0.00000000 </v>
   <v>      -0.00000000      -0.00000000     222.08810241 </v>
  </varray>
  <energy>
   <i name="e_fr_energy">   -257.21031627 </i>
   <i name="e_wo_entrp">   -257.21031627 </i>
   <i name="e_0_energy">     -0.00000000 </i>
  </energy>
  <time name="totalsc">  141.73  142.32</time>
  <eigenvalues>
   <array>
    <dimension dim="1">band</dimension>
    <dimension dim="2">kpoint</dimension>
    <dimension dim="3">spin</dimension>
    <field>eigene</field>
    <field>occ</field>
    <set>
     <set comment="spin 1">
      <set comment="kpoint 1">
       <r>   -8.2220    1.0000 </r>
       <r>   -8.2220    1.0000 </r>
       <r>   -8.2220    1.0000 </r>
       <r>   -8.2089    1.0000 </r>
       <r>   -8.2089    1.0000 </r>
       <r>   -8.2089    1.0000 </r>
       <r>   -8.2089    1.0000 </r>
       <r>   -8.2089    1.0000 </r>
       <r>   -8.2089    1.0000 </r>
       <r>   -8.1910    1.0000 </r>
       <r>   -8.1910    1.0000 </r>
       <r>   -8.1910    1.0000 </r>
       <r>   -8.1910    1.0000 </r>
       <r>   -8.1873    1.0000 </r>
       <r>   -8.1873    1.0000 </r>
       <r>   -8.1873    1.0000 </r>
       <r>   -8.1873    1.0000 </r>
       <r>   -8.1873    1.0000 </r>
       <r>   -8.1873    1.0000 </r>
       <r>   -8.1873    1.0000 </r>
       <r>   -8.1873    1.0000 </r>
       <r>   -8.1873    1.0000 </r>
       <r>   -8.1873    1.0000 </r>
       <r>   -8.1873    1.0000 </r>
       <r>   -8.1873    1.0000 </r>
       <r>   -8.1752    1.0000 </r>
       <r>   -8.1752    1.0000 </r>
       <r>   -8.1752    1.0000 </r>
       <r>   -8.1752    1.0000 </r>
       <r>   -8.1752    1.0000 </r>
       <r>   -8.1752    1.0000 </r>
       <r>   -8.1126    1.0000 </r>
       <r>   -8.1126    1.0000 </r>
       <r>   -8.1126    1.0000 </r>
       <r>   -8.0876    1.0000 </r>
       <r>   -8.0876    1.0000 </r>
       <r>   -8.0876    1.0000 </r>
       <r>   -8.0876    1.0000 </r>
       <r>   -8.0876    1.0000 </r>
       <r>   -8.0876    1.0000 </r>
       <r>   -8.0876    1.0000 </r>
       <r>   -8.0876    1.0000 </r>
       <r>   -8.0832    1.0000 </r>
       <r>   -8.0832    1.0000 </r>
       <r>   -8.0832    1.0000 </r>
       <r>   -8.0832    1.0000 </r>
       <r>   -8.0832    1.0000 </r>
       <r>   -8.0832    1.0000 </r>
       <r>   -8.0832    1.0000 </r>
       <r>   -8.0832    1.0000 </r>
       <r>   -8.0832    1.0000 </r>
       <r>   -8.0832    1.0000 </r>
       <r>   -8.0832    1.0000 </r>
       <r>   -8.0832    1.0000 </r>
       <r>   -8.0827    1.0000 </r>
       <r>   -8.0827    1.0000 </r>
       <r>   -8.0827    1.0000 </r>
       <r>   -8.0827    1.0000 </r>
       <r>   -8.0827    1.0000 </r>
       <r>   -8.0827    1.0000 </r>
       <r>   -8.0827    1.0000 </r>
       <r>   -8.0827    1.0000 </r>
       <r>   -8.0827    1.0000 </r>
       <r>   -8.0827    1.0000 </r>
       <r>   -8.0827    1.0000 </r>
       <r>   -8.0827    1.0000 </r>
       <r>   -8.0818    1.0000 </r>
       <r>   -8.0818    1.0000 </r>
       <r>   -8.0818    1.0000 </r>
       <r>   -8.0818    1.0000 </r>
       <r>   -8.0818    1.0000 </r>
       <r>   -8.0818    1.0000 </r>
       <r>   -8.0818    1.0000 </r>
       <r>   -8.0818    1.0000 </r>
       <r>   -8.0818    1.0000 </r>
       <r>   -8.0818    1.0000 </r>
       <r>   -8.0818    1.0000 </r>
       <r>   -8.0818    1.0000 </r>
       <r>   -8.0704    1.0000 </r>
       <r>   -8.0704    1.0000 </r>
       <r>   -8.0704    1.0000 </r>
       <r>   -8.0704    1.0000 </r>
       <r>   -8.0704    1.0000 </r>
       <r>   -8.0704    1.0000 </r>
       <r>   -8.0619    1.0000 </r>
       <r>   -8.0619    1.0000 </r>
       <r>   -8.0619    1.0000 </r>
       <r>   -8.0619    1.0000 </r>
       <r>   -8.0619    1.0000 </r>
       <r>   -8.0619    1.0000 </r>
       <r>   -8.0518    1.0000 </r>
       <r>   -8.0518    1.0000 </r>
       <r>   -8.0518    1.0000 </r>
       <r>   -8.0518    1.0000 </r>
       <r>   -8.0518    1.0000 </r>
       <r>   -8.0518    1.0000 </r>
       <r>   -8.0449    1.0000 </r>
       <r>   -8.0449    1.0000 </r>
       <r>   -8.0449    1.0000 </r>
       <r>   -8.0240    1.0000 </r>
       <r>   -8.0240    1.0000 </r>
       <r>   -8.0240    1.0000 </r>
       <r>   -8.0240    1.0000 </r>
       <r>   -8.0240    1.0000 </r>
       <r>   -8.0240    1.0000 </r>
       <r>   -8.0232    1.0000 </r>
       <r>   -8.0232    1.0000 </r>
       <r>   -8.0232    1.0000 </r>
       <r>   -8.0232    1.0000 </r>
       <r>   -8.0232    1.0000 </r>
       <r>   -8.0232    1.0000 </r>
       <r>   -8.0138    1.0000 </r>
       <r>   -8.0138    1.0000 </r>
       <r>   -8.0138    1.0000 </r>
       <r>   -8.0138    1.0000 </r>
       <r>   -8.0138    1.0000 </r>
       <r>   -8.0138    1.0000 </r>
       <r>   -8.0138    1.0000 </r>
       <r>   -8.0138    1.0000 </r>
       <r>   -8.0138    1.0000 </r>
       <r>   -8.0138    1.0000 </r>
       <r>   -8.0138    1.0000 </r>
       <r>   -8.0138    1.0000 </r>
       <r>   -8.0123    1.0000 </r>
       <r>   -8.0123    1.0000 </r>
       <r>   -8.0123    1.0000 </r>
       <r>   -8.0123    1.0000 </r>
       <r>   -8.0123    1.0000 </r>
       <r>   -8.0123    1.0000 </r>
       <r>   -8.0123    1.0000 </r>
       <r>   -8.0123    1.0000 </r>
       <r>   -8.0123    1.0000 </r>
       <r>   -8.0123    1.0000 </r>
       <r>   -8.0123    1.0000 </r>
       <r>   -8.0123    1.0000 </r>
       <r>   -8.0115    1.0000 </r>
       <r>   -8.0115    1.0000 </r>
       <r>   -8.0115    1.0000 </r>
       <r>   -8.0115    1.0000 </r>
       <r>   -8.0115    1.0000 </r>
       <r>   -8.0115    1.0000 </r>
       <r>   -8.0082    1.0000 </r>
       <r>   -8.0082    1.0000 </r>
       <r>   -8.0082    1.0000 </r>
       <r>   -8.0082    1.0000 </r>
       <r>   -8.0082    1.0000 </r>
       <r>   -8.0082    1.0000 </r>
       <r>   -8.0082    1.0000 </r>
       <r>   -8.0082    1.0000 </r>
       <r>   -8.0077    1.0000 </r>
       <r>   -8.0077    1.0000 </r>
       <r>   -8.0048    1.0000 </r>
       <r>   -8.0048    1.0000 </r>
       <r>   -8.0048    1.0000 </r>
       <r>   -8.0048    1.0000 </r>
       <r>   -8.0048    1.0000 </r>
       <r>   -8.0048    1.0000 </r>
       <r>   -8.0019    1.0000 </r>
       <r>   -8.0019    1.0000 </r>
       <r>   -8.0019    1.0000 </r>
       <r>   -5.8542    1.0000 </r>
       <r>   -4.7147    1.0000 </r>
       <r>   -4.7147    1.0000 </r>
       <r>   -4.7147    1.0000 </r>
       <r>   -4.7147    1.0000 </r>
       <r>   -4.7147    1.0000 </r>
       <r>   -4.7147    1.0000 </r>
       <r>   -3.7321    1.0000 </r>
       <r>   -3.7321    1.0000 </r>
       <r>   -3.7321    1.0000 </r>
       <r>   -3.7321    1.0000 </r>
       <r>   -3.7321    1.0000 </r>
       <r>   -3.7321    1.0000 </r>
       <r>   -3.7321    1.0000 </r>
       <r>   -3.7321    1.0000 </r>
       <r>   -3.7321    1.0000 </r>
       <r>   -3.7321    1.0000 </r>
       <r>   -3.7321    1.0000 </r>
       <r>   -3.7321    1.0000 </r>
       <r>   -3.4546    1.0000 </r>
       <r>   -3.4546    1.0000 </r>
       <r>   -3.4546    1.0000 </r>
       <r>   -3.4546    1.0000 </r>
       <r>   -2.2065    1.0000 </r>
       <r>   -2.2065    1.0000 </r>
       <r>   -2.2065    1.0000 </r>
       <r>   -2.0883    1.0000 </r>
       <r>   -2.0883    1.0000 </r>
       <r>   -2.0883    1.0000 </r>
       <r>   -2.0883    1.0000 </r>
       <r>   -2.0883    1.0000 </r>
       <r>   -2.0883    1.0000 </r>
       <r>   -0.4551    1.0000 </r>
       <r>   -0.4551    1.0000 </r>
       <r>   -0.4551    1.0000 </r>
       <r>   -0.2112    1.0000 </r>
       <r>   -0.2112    1.0000 </r>
       <r>   -0.2112    1.0000 </r>
       <r>   -0.2112    1.0000 </r>
       <r>   -0.2112    1.0000 </r>
       <r>   -0.2112    1.0000 </r>
       <r>   -0.1864    1.0000 </r>
       <r>   -0.1864    1.0000 </r>
       <r>   -0.1864    1.0000 </r>
       <r>   -0.1864    1.0000 </r>
       <r>    1.3849    1.0000 </r>
       <r>    1.3849    1.0000 </r>
       <r>    1.3849    1.0000 </r>
       <r>    1.3849    1.0000 </r>
       <r>    1.3849    1.0000 </r>
       <r>    1.3849    1.0000 </r>
       <r>    1.3849    1.0000 </r>
       <r>    1.3849    1.0000 </r>
       <r>    1.3849    1.0000 </r>
       <r>    1.3849    1.0000 </r>
       <r>    1.3849    1.0000 </r>
       <r>    1.3849    1.0000 </r>
       <r>    3.0255    1.0000 </r>
       <r>    3.0255    1.0000 </r>
       <r>    3.0255    1.0000 </r>
       <r>    3.0255    1.0000 </r>
       <r>    3.0255    1.0000 </r>
       <r>    3.0255    1.0000 </r>
       <r>    3.2712    1.0000 </r>
       <r>    3.2712    1.0000 </r>
       <r>    3.2712    1.0000 </r>
       <r>    3.2712    1.0000 </r>
       <r>    3.2712    1.0000 </r>
       <r>    3.2712    1.0000 </r>
       <r>    3.2712    1.0000 </r>
       <r>    3.2712    1.0000 </r>
       <r>    3.2712    1.0000 </r>
       <r>    3.2712    1.0000 </r>
       <r>    3.2712    1.0000 </r>
       <r>    3.2712    1.0000 </r>
       <r>    3.2761    1.0000 </r>
       <r>    3.2761    1.0000 </r>
       <r>    3.2761    1.0000 </r>
       <r>    3.2761    1.0000 </r>
       <r>    3.2761    1.0000 </r>
       <r>    3.2761    1.0000 </r>
       <r>    3.4999    1.0000 </r>
       <r>    3.4999    1.0000 </r>
       <r>    3.4999    1.0000 </r>
       <r>    3.4999    1.0000 </r>
       <r>    3.4999    1.0000 </r>
       <r>    3.4999    1.0000 </r>
       <r>    4.1566    1.0000 </r>
       <r>    4.1566    1.0000 </r>
       <r>    4.1566    1.0000 </r>
       <r>    4.1566    1.0000 </r>
       <r>    4.1566    1.0000 </r>
       <r>    4.1566    1.0000 </r>
       <r>    5.3825    1.0000 </r>
       <r>    5.3825    1.0000 </r>
       <r>    5.3825    1.0000 </r>
       <r>    5.3825    1.0000 </r>
       <r>    5.3825    1.0000 </r>
       <r>    5.3825    1.0000 </r>
       <r>    5.3825    1.0000 </r>
       <r>    5.3825    1.0000 </r>
       <r>    5.3825    1.0000 </r>
       <r>    5.3825    1.0000 </r>
       <r>    5.3825    1.0000 </r>
       <r>    5.3825    1.0000 </r>
       <r>    6.0376    1.0000 </r>
       <r>    6.0376    1.0000 </r>
       <r>    6.0376    1.0000 </r>
       <r>    6.0376    1.0000 </r>
       <r>    6.0376    1.0000 </r>
       <r>    6.0376    1.0000 </r>
       <r>    6.0376    1.0000 </r>
       <r>    6.0376    1.0000 </r>
       <r>    6.0376    1.0000 </r>
       <r>    6.0376    1.0000 </r>
       <r>    6.0376    1.0000 </r>
       <r>    6.0376    1.0000 </r>
       <r>    6.1583    1.0000 </r>
       <r>    6.1583    1.0000 </r>
       <r>    6.1583    1.0000 </r>
       <r>    6.1583    1.0000 </r>
       <r>    6.1583    1.0000 </r>
       <r>    6.1583    1.0000 </r>
       <r>    6.1583    1.0000 </r>
       <r>    6.1583    1.0000 </r>
       <r>    7.8154    1.0000 </r>
       <r>    7.8154    1.0000 </r>
       <r>    7.8154    1.0000 </r>
       <r>    8.2151    0.0000 </r>
       <r>    8.2151    0.0000 </r>
       <r>    8.2151    0.0000 </r>
       <r>    8.3885    0.0000 </r>
       <r>    8.3885    0.0000 </r>
       <r>    8.3885    0.0000 </r>
       <r>    8.6200    0.0000 </r>
       <r>    8.6200    0.0000 </r>
       <r>    8.6200    0.0000 </r>
       <r>    8.6200    0.0000 </r>
       <r>    8.6200    0.0000 </r>
       <r>    8.6200    0.0000 </r>
       <r>    8.7470    0.0000 </r>
       <r>    8.7470    0.0000 </r>
       <r>    8.7470    0.0000 </r>
       <r>    8.7470    0.0000 </r>
       <r>    9.7169    0.0000 </r>
       <r>    9.9797    0.0000 </r>
       <r>    9.9797    0.0000 </r>
       <r>    9.9797    0.0000 </r>
       <r>    9.9797    0.0000 </r>
       <r>    9.9797    0.0000 </r>
       <r>    9.9797    0.0000 </r>
       <r>    9.9797    0.0000 </r>
       <r>    9.9797    0.0000 </r>
       <r>    9.9797    0.0000 </r>
       <r>    9.9797    0.0000 </r>
       <r>    9.9797    0.0000 </r>
       <r>    9.9797    0.0000 </r>
       <r>   10.4135    0.0000 </r>
       <r>   10.4135    0.0000 </r>
       <r>   10.4135    0.0000 </r>
       <r>   10.6075    0.0000 </r>
       <r>   10.6075    0.0000 </r>
       <r>   10.6075    0.0000 </r>
       <r>   10.6075    0.0000 </r>
       <r>   10.6075    0.0000 </r>
       <r>   10.6075    0.0000 </r>
       <r>   11.4325    0.0000 </r>
       <r>   11.4325    0.0000 </r>
       <r>   11.4325    0.0000 </r>
       <r>   11.4325    0.0000 </r>
       <r>   11.4325    0.0000 </r>
       <r>   11.4325    0.0000 </r>
       <r>   11.4325    0.0000 </r>
       <r>   11.4325    0.0000 </r>
       <r>   12.1146    0.0000 </r>
       <r>   12.1146    0.0000 </r>
       <r>   12.1146    0.0000 </r>
       <r>   12.1147    0.0000 </r>
       <r>   12.1148    0.0000 </r>
       <r>   12.1153    0.0000 </r>
       <r>   12.3183    0.0000 </r>
       <r>   12.3186    0.0000 </r>
       <r>   12.3221    0.0000 </r>
       <r>   12.3299    0.0000 </r>
       <r>   12.3370    0.0000 </r>
       <r>   12.3512    0.0000 </r>
       <r>   12.3681    0.0000 </r>
       <r>   12.3688    0.0000 </r>
       <r>   12.3705    0.0000 </r>
       <r>   12.3966    0.0000 </r>
      </set>
      <set comment="kpoint 2">
       <r>   -8.2190    1.0000 </r>
       <r>   -8.2190    1.0000 </r>
       <r>   -8.2163    1.0000 </r>
       <r>   -8.2125    1.0000 </r>
       <r>   -8.2125    1.0000 </r>
       <r>   -8.2060    1.0000 </r>
       <r>   -8.2060    1.0000 </r>
       <r>   -8.2060    1.0000 </r>
       <r>   -8.2060    1.0000 </r>
       <r>   -8.1999    1.0000 </r>
       <r>   -8.1979    1.0000 </r>
       <r>   -8.1979    1.0000 </r>
       <r>   -8.1979    1.0000 </r>
       <r>   -8.1979    1.0000 </r>
       <r>   -8.1900    1.0000 </r>
       <r>   -8.1900    1.0000 </r>
       <r>   -8.1900    1.0000 </r>
       <r>   -8.1900    1.0000 </r>
       <r>   -8.1882    1.0000 </r>
       <r>   -8.1882    1.0000 </r>
       <r>   -8.1882    1.0000 </r>
       <r>   -8.1882    1.0000 </r>
       <r>   -8.1788    1.0000 </r>
       <r>   -8.1788    1.0000 </r>
       <r>   -8.1788    1.0000 </r>
       <r>   -8.1788    1.0000 </r>
       <r>   -8.1756    1.0000 </r>
       <r>   -8.1756    1.0000 </r>
       <r>   -8.1756    1.0000 </r>
       <r>   -8.1756    1.0000 </r>
       <r>   -8.1469    1.0000 </r>
       <r>   -8.1226    1.0000 </r>
       <r>   -8.1088    1.0000 </r>
       <r>   -8.1088    1.0000 </r>
       <r>   -8.0981    1.0000 </r>
       <r>   -8.0981    1.0000 </r>
       <r>   -8.0873    1.0000 </r>
       <r>   -8.0873    1.0000 </r>
       <r>   -8.0873    1.0000 </r>
       <r>   -8.0873    1.0000 </r>
       <r>   -8.0865    1.0000 </r>
       <r>   -8.0865    1.0000 </r>
       <r>   -8.0865    1.0000 </r>
       <r>   -8.0865    1.0000 </r>
       <r>   -8.0862    1.0000 </r>
       <r>   -8.0862    1.0000 </r>
       <r>   -8.0862    1.0000 </r>
       <r>   -8.0862    1.0000 </r>
       <r>   -8.0855    1.0000 </r>
       <r>   -8.0855    1.0000 </r>
       <r>   -8.0855    1.0000 </r>
       <r>   -8.0855    1.0000 </r>
       <r>   -8.0841    1.0000 </r>
       <r>   -8.0841    1.0000 </r>
       <r>   -8.0841    1.0000 </r>
       <r>   -8.0841    1.0000 </r>
       <r>   -8.0840    1.0000 </r>
       <r>   -8.0840    1.0000 </r>
       <r>   -8.0840    1.0000 </r>
       <r>   -8.0840    1.0000 </r>
       <r>   -8.0836    1.0000 </r>
       <r>   -8.0836    1.0000 </r>
       <r>   -8.0836    1.0000 </r>
       <r>   -8.0836    1.0000 </r>
       <r>   -8.0833    1.0000 </r>
       <r>   -8.0833    1.0000 </r>
       <r>   -8.0833    1.0000 </r>
       <r>   -8.0833    1.0000 </r>
       <r>   -8.0786    1.0000 </r>
       <r>   -8.0786    1.0000 </r>
       <r>   -8.0786    1.0000 </r>
       <r>   -8.0786    1.0000 </r>
       <r>   -8.0733    1.0000 </r>
       <r>   -8.0733    1.0000 </r>
       <r>   -8.0733    1.0000 </r>
       <r>   -8.0733    1.0000 </r>
       <r>   -8.0718    1.0000 </r>
       <r>   -8.0718    1.0000 </r>
       <r>   -8.0718    1.0000 </r>
       <r>   -8.0718    1.0000 </r>
       <r>   -8.0677    1.0000 </r>
       <r>   -8.0677    1.0000 </r>
       <r>   -8.0655    1.0000 </r>
       <r>   -8.0655    1.0000 </r>
       <r>   -8.0640    1.0000 </r>
       <r>   -8.0640    1.0000 </r>
       <r>   -8.0640    1.0000 </r>
       <r>   -8.0640    1.0000 </r>
       <r>   -8.0604    1.0000 </r>
       <r>   -8.0604    1.0000 </r>
       <r>   -8.0563    1.0000 </r>
       <r>   -8.0563    1.0000 </r>
       <r>   -8.0562    1.0000 </r>
       <r>   -8.0562    1.0000 </r>
       <r>   -8.0561    1.0000 </r>
       <r>   -8.0561    1.0000 </r>
       <r>   -8.0420    1.0000 </r>
       <r>   -8.0384    1.0000 </r>
       <r>   -8.0384    1.0000 </r>
       <r>   -8.0342    1.0000 </r>
       <r>   -8.0290    1.0000 </r>
       <r>   -8.0290    1.0000 </r>
       <r>   -8.0222    1.0000 </r>
       <r>   -8.0222    1.0000 </r>
       <r>   -8.0222    1.0000 </r>
       <r>   -8.0222    1.0000 </r>
       <r>   -8.0220    1.0000 </r>
       <r>   -8.0220    1.0000 </r>
       <r>   -8.0220    1.0000 </r>
       <r>   -8.0220    1.0000 </r>
       <r>   -8.0183    1.0000 </r>
       <r>   -8.0183    1.0000 </r>
       <r>   -8.0183    1.0000 </r>
       <r>   -8.0183    1.0000 </r>
       <r>   -8.0175    1.0000 </r>
       <r>   -8.0175    1.0000 </r>
       <r>   -8.0175    1.0000 </r>
       <r>   -8.0175    1.0000 </r>
       <r>   -8.0149    1.0000 </r>
       <r>   -8.0123    1.0000 </r>
       <r>   -8.0123    1.0000 </r>
       <r>   -8.0123    1.0000 </r>
       <r>   -8.0123    1.0000 </r>
       <r>   -8.0114    1.0000 </r>
       <r>   -8.0114    1.0000 </r>
       <r>   -8.0114    1.0000 </r>
       <r>   -8.0114    1.0000 </r>
       <r>   -8.0113    1.0000 </r>
       <r>   -8.0113    1.0000 </r>
       <r>   -8.0113    1.0000 </r>
       <r>   -8.0113    1.0000 </r>
       <r>   -8.0112    1.0000 </r>
       <r>   -8.0112    1.0000 </r>
       <r>   -8.0112    1.0000 </r>
       <r>   -8.0112    1.0000 </r>
       <r>   -8.0096    1.0000 </r>
       <r>   -8.0096    1.0000 </r>
       <r>   -8.0096    1.0000 </r>
       <r>   -8.0096    1.0000 </r>
       <r>   -8.0093    1.0000 </r>
       <r>   -8.0092    1.0000 </r>
       <r>   -8.0092    1.0000 </r>
       <r>   -8.0092    1.0000 </r>
       <r>   -8.0092    1.0000 </r>
       <r>   -8.0080    1.0000 </r>
       <r>   -8.0080    1.0000 </r>
       <r>   -8.0080    1.0000 </r>
       <r>   -8.0080    1.0000 </r>
       <r>   -8.0077    1.0000 </r>
       <r>   -8.0077    1.0000 </r>
       <r>   -8.0073    1.0000 </r>
       <r>   -8.0062    1.0000 </r>
       <r>   -8.0054    1.0000 </r>
       <r>   -8.0054    1.0000 </r>
       <r>   -8.0054    1.0000 </r>
       <r>   -8.0054    1.0000 </r>
       <r>   -8.0035    1.0000 </r>
       <r>   -8.0035    1.0000 </r>
       <r>   -8.0034    1.0000 </r>
       <r>   -8.0023    1.0000 </r>
       <r>   -5.7240    1.0000 </r>
       <r>   -5.3393    1.0000 </r>
       <r>   -4.5992    1.0000 </r>
       <r>   -4.5992    1.0000 </r>
       <r>   -4.5992    1.0000 </r>
       <r>   -4.5992    1.0000 </r>
       <r>   -4.2620    1.0000 </r>
       <r>   -4.2620    1.0000 </r>
       <r>   -4.2620    1.0000 </r>
       <r>   -4.2620    1.0000 </r>
       <r>   -3.8747    1.0000 </r>
       <r>   -3.6706    1.0000 </r>
       <r>   -3.6706    1.0000 </r>
       <r>   -3.6706    1.0000 </r>
       <r>   -3.6706    1.0000 </r>
       <r>   -3.5329    1.0000 </r>
       <r>   -3.5329    1.0000 </r>
       <r>   -3.5329    1.0000 </r>
       <r>   -3.5329    1.0000 </r>
       <r>   -3.0712    1.0000 </r>
       <r>   -3.0712    1.0000 </r>
       <r>   -3.0712    1.0000 </r>
       <r>   -3.0712    1.0000 </r>
       <r>   -2.8876    1.0000 </r>
       <r>   -2.4149    1.0000 </r>
       <r>   -2.4149    1.0000 </r>
       <r>   -2.4149    1.0000 </r>
       <r>   -2.4149    1.0000 </r>
       <r>   -2.1780    1.0000 </r>
       <r>   -2.1780    1.0000 </r>
       <r>   -2.1190    1.0000 </r>
       <r>   -2.1190    1.0000 </r>
       <r>   -0.4005    1.0000 </r>
       <r>   -0.4005    1.0000 </r>
       <r>   -0.2794    1.0000 </r>
       <r>   -0.2794    1.0000 </r>
       <r>    0.0617    1.0000 </r>
       <r>    0.0617    1.0000 </r>
       <r>    0.0617    1.0000 </r>
       <r>    0.0617    1.0000 </r>
       <r>    0.1042    1.0000 </r>
       <r>    0.1042    1.0000 </r>
       <r>    0.1042    1.0000 </r>
       <r>    0.1042    1.0000 </r>
       <r>    0.3941    1.0000 </r>
       <r>    0.6485    1.0000 </r>
       <r>    0.6485    1.0000 </r>
       <r>    0.6485    1.0000 </r>
       <r>    0.6485    1.0000 </r>
       <r>    0.8234    1.0000 </r>
       <r>    0.8234    1.0000 </r>
       <r>    0.8234    1.0000 </r>
       <r>    0.8234    1.0000 </r>
       <r>    1.8736    1.0000 </r>
       <r>    2.2234    1.0000 </r>
       <r>    2.2234    1.0000 </r>
       <r>    2.2234    1.0000 </r>
       <r>    2.2234    1.0000 </r>
       <r>    2.7440    1.0000 </r>
       <r>    2.7440    1.0000 </r>
       <r>    2.7440    1.0000 </r>
       <r>    2.7440    1.0000 </r>
       <r>    2.8189    1.0000 </r>
       <r>    2.8189    1.0000 </r>
       <r>    2.8189    1.0000 </r>
       <r>    2.8189    1.0000 </r>
       <r>    3.0566    1.0000 </r>
       <r>    3.0566    1.0000 </r>
       <r>    3.0566    1.0000 </r>
       <r>    3.0566    1.0000 </r>
       <r>    3.2694    1.0000 </r>
       <r>    3.2694    1.0000 </r>
       <r>    3.4617    1.0000 </r>
       <r>    3.4617    1.0000 </r>
       <r>    3.8207    1.0000 </r>
       <r>    3.8207    1.0000 </r>
       <r>    3.8928    1.0000 </r>
       <r>    3.8928    1.0000 </r>
       <r>    4.0093    1.0000 </r>
       <r>    4.0093    1.0000 </r>
       <r>    4.0093    1.0000 </r>
       <r>    4.0093    1.0000 </r>
       <r>    4.0232    1.0000 </r>
       <r>    4.0232    1.0000 </r>
       <r>    4.0232    1.0000 </r>
       <r>    4.0232    1.0000 </r>
       <r>    4.0465    1.0000 </r>
       <r>    4.0465    1.0000 </r>
       <r>    4.0465    1.0000 </r>
       <r>    4.0465    1.0000 </r>
       <r>    4.2971    1.0000 </r>
       <r>    4.2971    1.0000 </r>
       <r>    4.7125    1.0000 </r>
       <r>    4.7125    1.0000 </r>
       <r>    4.8792    1.0000 </r>
       <r>    4.8792    1.0000 </r>
       <r>    4.8792    1.0000 </r>
       <r>    4.8792    1.0000 </r>
       <r>    5.1493    1.0000 </r>
       <r>    5.1493    1.0000 </r>
       <r>    5.1493    1.0000 </r>
       <r>    5.1493    1.0000 </r>
       <r>    5.1666    1.0000 </r>
       <r>    5.3599    1.0000 </r>
       <r>    5.3599    1.0000 </r>
       <r>    5.3599    1.0000 </r>
       <r>    5.3599    1.0000 </r>
       <r>    5.6965    1.0000 </r>
       <r>    5.6965    1.0000 </r>
       <r>    5.6965    1.0000 </r>
       <r>    5.6965    1.0000 </r>
       <r>    6.0665    1.0000 </r>
       <r>    6.0665    1.0000 </r>
       <r>    6.0665    1.0000 </r>
       <r>    6.0665    1.0000 </r>
       <r>    6.1204    1.0000 </r>
       <r>    6.1204    1.0000 </r>
       <r>    6.1204    1.0000 </r>
       <r>    6.1204    1.0000 </r>
       <r>    6.1268    1.0000 </r>
       <r>    6.1268    1.0000 </r>
       <r>    6.1268    1.0000 </r>
       <r>    6.1268    1.0000 </r>
       <r>    6.2637    1.0000 </r>
       <r>    6.2637    1.0000 </r>
       <r>    6.7855    1.0000 </r>
       <r>    7.2390    1.0000 </r>
       <r>    7.2390    1.0000 </r>
       <r>    8.1222    0.0000 </r>
       <r>    8.2424    0.0000 </r>
       <r>    8.7823    0.0000 </r>
       <r>    8.8642    0.0000 </r>
       <r>    8.8642    0.0000 </r>
       <r>    8.9936    0.0000 </r>
       <r>    8.9936    0.0000 </r>
       <r>    9.2183    0.0000 </r>
       <r>    9.3639    0.0000 </r>
       <r>    9.3639    0.0000 </r>
       <r>    9.3639    0.0000 </r>
       <r>    9.3639    0.0000 </r>
       <r>    9.3983    0.0000 </r>
       <r>    9.3983    0.0000 </r>
       <r>    9.3983    0.0000 </r>
       <r>    9.3983    0.0000 </r>
       <r>    9.5587    0.0000 </r>
       <r>    9.8983    0.0000 </r>
       <r>    9.9503    0.0000 </r>
       <r>    9.9503    0.0000 </r>
       <r>    9.9503    0.0000 </r>
       <r>    9.9503    0.0000 </r>
       <r>   10.1319    0.0000 </r>
       <r>   10.1319    0.0000 </r>
       <r>   10.1319    0.0000 </r>
       <r>   10.1319    0.0000 </r>
       <r>   10.3871    0.0000 </r>
       <r>   10.3871    0.0000 </r>
       <r>   10.4579    0.0000 </r>
       <r>   10.4579    0.0000 </r>
       <r>   10.7520    0.0000 </r>
       <r>   10.7520    0.0000 </r>
       <r>   10.7520    0.0000 </r>
       <r>   10.7520    0.0000 </r>
       <r>   10.7712    0.0000 </r>
       <r>   10.9621    0.0000 </r>
       <r>   10.9621    0.0000 </r>
       <r>   10.9621    0.0000 </r>
       <r>   10.9621    0.0000 </r>
       <r>   11.0333    0.0000 </r>
       <r>   11.0333    0.0000 </r>
       <r>   11.0333    0.0000 </r>
       <r>   11.0333    0.0000 </r>
       <r>   11.1296    0.0000 </r>
       <r>   11.1296    0.0000 </r>
       <r>   11.1543    0.0000 </r>
       <r>   11.1543    0.0000 </r>
       <r>   11.1543    0.0000 </r>
       <r>   11.1543    0.0000 </r>
       <r>   11.3067    0.0000 </r>
       <r>   11.3067    0.0000 </r>
       <r>   11.3067    0.0000 </r>
       <r>   11.3067    0.0000 </r>
       <r>   11.4573    0.0000 </r>
       <r>   11.6604    0.0000 </r>
       <r>   11.6604    0.0000 </r>
       <r>   11.6604    0.0000 </r>
       <r>   11.6605    0.0000 </r>
       <r>   11.8296    0.0000 </r>
       <r>   11.8297    0.0000 </r>
       <r>   11.8298    0.0000 </r>
       <r>   11.8313    0.0000 </r>
      </set>
      <set comment="kpoint 3">
       <r>   -8.2163    1.0000 </r>
       <r>   -8.2137    1.0000 </r>
       <r>   -8.2137    1.0000 </r>
       <r>   -8.2100    1.0000 </r>
       <r>   -8.2100    1.0000 </r>
       <r>   -8.2083    1.0000 </r>
       <r>   -8.2083    1.0000 </r>
       <r>   -8.2039    1.0000 </r>
       <r>   -8.2036    1.0000 </r>
       <r>   -8.2036    1.0000 </r>
       <r>   -8.1984    1.0000 </r>
       <r>   -8.1984    1.0000 </r>
       <r>   -8.1971    1.0000 </r>
       <r>   -8.1971    1.0000 </r>
       <r>   -8.1971    1.0000 </r>
       <r>   -8.1971    1.0000 </r>
       <r>   -8.1963    1.0000 </r>
       <r>   -8.1963    1.0000 </r>
       <r>   -8.1944    1.0000 </r>
       <r>   -8.1944    1.0000 </r>
       <r>   -8.1847    1.0000 </r>
       <r>   -8.1847    1.0000 </r>
       <r>   -8.1805    1.0000 </r>
       <r>   -8.1805    1.0000 </r>
       <r>   -8.1805    1.0000 </r>
       <r>   -8.1805    1.0000 </r>
       <r>   -8.1765    1.0000 </r>
       <r>   -8.1765    1.0000 </r>
       <r>   -8.1607    1.0000 </r>
       <r>   -8.1495    1.0000 </r>
       <r>   -8.1495    1.0000 </r>
       <r>   -8.1286    1.0000 </r>
       <r>   -8.1083    1.0000 </r>
       <r>   -8.1056    1.0000 </r>
       <r>   -8.0995    1.0000 </r>
       <r>   -8.0995    1.0000 </r>
       <r>   -8.0969    1.0000 </r>
       <r>   -8.0967    1.0000 </r>
       <r>   -8.0967    1.0000 </r>
       <r>   -8.0922    1.0000 </r>
       <r>   -8.0889    1.0000 </r>
       <r>   -8.0889    1.0000 </r>
       <r>   -8.0882    1.0000 </r>
       <r>   -8.0882    1.0000 </r>
       <r>   -8.0882    1.0000 </r>
       <r>   -8.0882    1.0000 </r>
       <r>   -8.0872    1.0000 </r>
       <r>   -8.0872    1.0000 </r>
       <r>   -8.0864    1.0000 </r>
       <r>   -8.0864    1.0000 </r>
       <r>   -8.0849    1.0000 </r>
       <r>   -8.0849    1.0000 </r>
       <r>   -8.0849    1.0000 </r>
       <r>   -8.0849    1.0000 </r>
       <r>   -8.0842    1.0000 </r>
       <r>   -8.0842    1.0000 </r>
       <r>   -8.0840    1.0000 </r>
       <r>   -8.0840    1.0000 </r>
       <r>   -8.0805    1.0000 </r>
       <r>   -8.0805    1.0000 </r>
       <r>   -8.0804    1.0000 </r>
       <r>   -8.0804    1.0000 </r>
       <r>   -8.0804    1.0000 </r>
       <r>   -8.0804    1.0000 </r>
       <r>   -8.0773    1.0000 </r>
       <r>   -8.0773    1.0000 </r>
       <r>   -8.0758    1.0000 </r>
       <r>   -8.0758    1.0000 </r>
       <r>   -8.0747    1.0000 </r>
       <r>   -8.0744    1.0000 </r>
       <r>   -8.0744    1.0000 </r>
       <r>   -8.0744    1.0000 </r>
       <r>   -8.0744    1.0000 </r>
       <r>   -8.0721    1.0000 </r>
       <r>   -8.0721    1.0000 </r>
       <r>   -8.0712    1.0000 </r>
       <r>   -8.0712    1.0000 </r>
       <r>   -8.0695    1.0000 </r>
       <r>   -8.0695    1.0000 </r>
       <r>   -8.0693    1.0000 </r>
       <r>   -8.0693    1.0000 </r>
       <r>   -8.0690    1.0000 </r>
       <r>   -8.0690    1.0000 </r>
       <r>   -8.0667    1.0000 </r>
       <r>   -8.0667    1.0000 </r>
       <r>   -8.0667    1.0000 </r>
       <r>   -8.0631    1.0000 </r>
       <r>   -8.0631    1.0000 </r>
       <r>   -8.0624    1.0000 </r>
       <r>   -8.0610    1.0000 </r>
       <r>   -8.0610    1.0000 </r>
       <r>   -8.0604    1.0000 </r>
       <r>   -8.0604    1.0000 </r>
       <r>   -8.0593    1.0000 </r>
       <r>   -8.0593    1.0000 </r>
       <r>   -8.0557    1.0000 </r>
       <r>   -8.0368    1.0000 </r>
       <r>   -8.0368    1.0000 </r>
       <r>   -8.0352    1.0000 </r>
       <r>   -8.0308    1.0000 </r>
       <r>   -8.0308    1.0000 </r>
       <r>   -8.0279    1.0000 </r>
       <r>   -8.0279    1.0000 </r>
       <r>   -8.0272    1.0000 </r>
       <r>   -8.0272    1.0000 </r>
       <r>   -8.0237    1.0000 </r>
       <r>   -8.0237    1.0000 </r>
       <r>   -8.0219    1.0000 </r>
       <r>   -8.0208    1.0000 </r>
       <r>   -8.0208    1.0000 </r>
       <r>   -8.0200    1.0000 </r>
       <r>   -8.0200    1.0000 </r>
       <r>   -8.0167    1.0000 </r>
       <r>   -8.0167    1.0000 </r>
       <r>   -8.0167    1.0000 </r>
       <r>   -8.0167    1.0000 </r>
       <r>   -8.0158    1.0000 </r>
       <r>   -8.0158    1.0000 </r>
       <r>   -8.0158    1.0000 </r>
       <r>   -8.0158    1.0000 </r>
       <r>   -8.0139    1.0000 </r>
       <r>   -8.0139    1.0000 </r>
       <r>   -8.0130    1.0000 </r>
       <r>   -8.0129    1.0000 </r>
       <r>   -8.0129    1.0000 </r>
       <r>   -8.0123    1.0000 </r>
       <r>   -8.0123    1.0000 </r>
       <r>   -8.0107    1.0000 </r>
       <r>   -8.0107    1.0000 </r>
       <r>   -8.0104    1.0000 </r>
       <r>   -8.0104    1.0000 </r>
       <r>   -8.0104    1.0000 </r>
       <r>   -8.0104    1.0000 </r>
       <r>   -8.0103    1.0000 </r>
       <r>   -8.0095    1.0000 </r>
       <r>   -8.0090    1.0000 </r>
       <r>   -8.0090    1.0000 </r>
       <r>   -8.0088    1.0000 </r>
       <r>   -8.0083    1.0000 </r>
       <r>   -8.0083    1.0000 </r>
       <r>   -8.0079    1.0000 </r>
       <r>   -8.0076    1.0000 </r>
       <r>   -8.0076    1.0000 </r>
       <r>   -8.0076    1.0000 </r>
       <r>   -8.0076    1.0000 </r>
       <r>   -8.0075    1.0000 </r>
       <r>   -8.0075    1.0000 </r>
       <r>   -8.0074    1.0000 </r>
       <r>   -8.0074    1.0000 </r>
       <r>   -8.0071    1.0000 </r>
       <r>   -8.0071    1.0000 </r>
       <r>   -8.0070    1.0000 </r>
       <r>   -8.0070    1.0000 </r>
       <r>   -8.0058    1.0000 </r>
       <r>   -8.0058    1.0000 </r>
       <r>   -8.0047    1.0000 </r>
       <r>   -8.0042    1.0000 </r>
       <r>   -8.0042    1.0000 </r>
       <r>   -8.0036    1.0000 </r>
       <r>   -8.0036    1.0000 </r>
       <r>   -5.5954    1.0000 </r>
       <r>   -5.2153    1.0000 </r>
       <r>   -5.2153    1.0000 </r>
       <r>   -4.8496    1.0000 </r>
       <r>   -4.4878    1.0000 </r>
       <r>   -4.4878    1.0000 </r>
       <r>   -4.1649    1.0000 </r>
       <r>   -4.1649    1.0000 </r>
       <r>   -4.1649    1.0000 </r>
       <r>   -4.1649    1.0000 </r>
       <r>   -3.8959    1.0000 </r>
       <r>   -3.8959    1.0000 </r>
       <r>   -3.7750    1.0000 </r>
       <r>   -3.7750    1.0000 </r>
       <r>   -3.4909    1.0000 </r>
       <r>   -3.4909    1.0000 </r>
       <r>   -3.2263    1.0000 </r>
       <r>   -3.2263    1.0000 </r>
       <r>   -3.0931    1.0000 </r>
       <r>   -3.0931    1.0000 </r>
       <r>   -3.0931    1.0000 </r>
       <r>   -3.0931    1.0000 </r>
       <r>   -2.8183    1.0000 </r>
       <r>   -2.8183    1.0000 </r>
       <r>   -2.6358    1.0000 </r>
       <r>   -2.6358    1.0000 </r>
       <r>   -2.6117    1.0000 </r>
       <r>   -2.6050    1.0000 </r>
       <r>   -2.6050    1.0000 </r>
       <r>   -2.2529    1.0000 </r>
       <r>   -2.2529    1.0000 </r>
       <r>   -2.1885    1.0000 </r>
       <r>   -0.3373    1.0000 </r>
       <r>   -0.1658    1.0000 </r>
       <r>   -0.1658    1.0000 </r>
       <r>   -0.0478    1.0000 </r>
       <r>   -0.0478    1.0000 </r>
       <r>    0.0772    1.0000 </r>
       <r>    0.0772    1.0000 </r>
       <r>    0.1591    1.0000 </r>
       <r>    0.2618    1.0000 </r>
       <r>    0.2618    1.0000 </r>
       <r>    0.2971    1.0000 </r>
       <r>    0.2971    1.0000 </r>
       <r>    0.2971    1.0000 </r>
       <r>    0.2971    1.0000 </r>
       <r>    0.3678    1.0000 </r>
       <r>    0.3678    1.0000 </r>
       <r>    0.7176    1.0000 </r>
       <r>    0.7176    1.0000 </r>
       <r>    1.2110    1.0000 </r>
       <r>    1.2110    1.0000 </r>
       <r>    1.5993    1.0000 </r>
       <r>    1.5993    1.0000 </r>
       <r>    1.5993    1.0000 </r>
       <r>    1.5993    1.0000 </r>
       <r>    1.6850    1.0000 </r>
       <r>    1.6850    1.0000 </r>
       <r>    2.4987    1.0000 </r>
       <r>    2.4987    1.0000 </r>
       <r>    2.5275    1.0000 </r>
       <r>    2.7017    1.0000 </r>
       <r>    2.7017    1.0000 </r>
       <r>    2.9661    1.0000 </r>
       <r>    2.9661    1.0000 </r>
       <r>    3.1337    1.0000 </r>
       <r>    3.2177    1.0000 </r>
       <r>    3.2177    1.0000 </r>
       <r>    3.2928    1.0000 </r>
       <r>    3.4388    1.0000 </r>
       <r>    3.4388    1.0000 </r>
       <r>    3.4388    1.0000 </r>
       <r>    3.4388    1.0000 </r>
       <r>    3.4597    1.0000 </r>
       <r>    3.4597    1.0000 </r>
       <r>    3.9030    1.0000 </r>
       <r>    3.9030    1.0000 </r>
       <r>    3.9396    1.0000 </r>
       <r>    3.9396    1.0000 </r>
       <r>    4.1346    1.0000 </r>
       <r>    4.1346    1.0000 </r>
       <r>    4.2572    1.0000 </r>
       <r>    4.2572    1.0000 </r>
       <r>    4.3202    1.0000 </r>
       <r>    4.3202    1.0000 </r>
       <r>    4.3764    1.0000 </r>
       <r>    4.3764    1.0000 </r>
       <r>    4.3948    1.0000 </r>
       <r>    4.4021    1.0000 </r>
       <r>    4.4021    1.0000 </r>
       <r>    4.5372    1.0000 </r>
       <r>    4.5372    1.0000 </r>
       <r>    4.7420    1.0000 </r>
       <r>    4.7420    1.0000 </r>
       <r>    4.7420    1.0000 </r>
       <r>    4.7420    1.0000 </r>
       <r>    4.7485    1.0000 </r>
       <r>    4.7485    1.0000 </r>
       <r>    4.8072    1.0000 </r>
       <r>    4.9129    1.0000 </r>
       <r>    4.9129    1.0000 </r>
       <r>    5.0685    1.0000 </r>
       <r>    5.2607    1.0000 </r>
       <r>    5.2607    1.0000 </r>
       <r>    5.2683    1.0000 </r>
       <r>    5.2683    1.0000 </r>
       <r>    5.2683    1.0000 </r>
       <r>    5.2683    1.0000 </r>
       <r>    5.5465    1.0000 </r>
       <r>    5.5465    1.0000 </r>
       <r>    5.6387    1.0000 </r>
       <r>    5.6387    1.0000 </r>
       <r>    5.7170    1.0000 </r>
       <r>    5.7170    1.0000 </r>
       <r>    5.7244    1.0000 </r>
       <r>    5.7244    1.0000 </r>
       <r>    5.7285    1.0000 </r>
       <r>    5.9282    1.0000 </r>
       <r>    5.9282    1.0000 </r>
       <r>    6.0644    1.0000 </r>
       <r>    6.0644    1.0000 </r>
       <r>    6.0644    1.0000 </r>
       <r>    6.0644    1.0000 </r>
       <r>    6.6754    1.0000 </r>
       <r>    6.8403    1.0000 </r>
       <r>    6.8403    1.0000 </r>
       <r>    7.0158    1.0000 </r>
       <r>    7.6379    1.0000 </r>
       <r>    8.5142    0.0000 </r>
       <r>    8.8036    0.0000 </r>
       <r>    8.8036    0.0000 </r>
       <r>    8.9617    0.0000 </r>
       <r>    8.9617    0.0000 </r>
       <r>    9.1279    0.0000 </r>
       <r>    9.3437    0.0000 </r>
       <r>    9.3437    0.0000 </r>
       <r>    9.3532    0.0000 </r>
       <r>    9.3532    0.0000 </r>
       <r>    9.4792    0.0000 </r>
       <r>    9.4792    0.0000 </r>
       <r>    9.5471    0.0000 </r>
       <r>    9.5471    0.0000 </r>
       <r>    9.9499    0.0000 </r>
       <r>    9.9499    0.0000 </r>
       <r>   10.0404    0.0000 </r>
       <r>   10.0404    0.0000 </r>
       <r>   10.0453    0.0000 </r>
       <r>   10.0453    0.0000 </r>
       <r>   10.1300    0.0000 </r>
       <r>   10.1673    0.0000 </r>
       <r>   10.1673    0.0000 </r>
       <r>   10.1673    0.0000 </r>
       <r>   10.1673    0.0000 </r>
       <r>   10.2082    0.0000 </r>
       <r>   10.2163    0.0000 </r>
       <r>   10.2163    0.0000 </r>
       <r>   10.2163    0.0000 </r>
       <r>   10.2163    0.0000 </r>
       <r>   10.3612    0.0000 </r>
       <r>   10.3612    0.0000 </r>
       <r>   10.4093    0.0000 </r>
       <r>   10.5405    0.0000 </r>
       <r>   10.5405    0.0000 </r>
       <r>   10.6598    0.0000 </r>
       <r>   10.7431    0.0000 </r>
       <r>   10.7431    0.0000 </r>
       <r>   10.8914    0.0000 </r>
       <r>   10.9351    0.0000 </r>
       <r>   10.9351    0.0000 </r>
       <r>   10.9916    0.0000 </r>
       <r>   10.9916    0.0000 </r>
       <r>   11.0350    0.0000 </r>
       <r>   11.0350    0.0000 </r>
       <r>   11.1451    0.0000 </r>
       <r>   11.1451    0.0000 </r>
       <r>   11.1476    0.0000 </r>
       <r>   11.1476    0.0000 </r>
       <r>   11.1476    0.0000 </r>
       <r>   11.1476    0.0000 </r>
       <r>   11.2973    0.0000 </r>
       <r>   11.2974    0.0000 </r>
       <r>   11.3157    0.0000 </r>
       <r>   11.3158    0.0000 </r>
       <r>   11.4178    0.0000 </r>
       <r>   11.4315    0.0000 </r>
       <r>   11.4322    0.0000 </r>
       <r>   11.4997    0.0000 </r>
       <r>   11.4997    0.0000 </r>
       <r>   11.4998    0.0000 </r>
       <r>   11.5019    0.0000 </r>
      </set>
      <set comment="kpoint 4">
       <r>   -8.2114    1.0000 </r>
       <r>   -8.2114    1.0000 </r>
       <r>   -8.2114    1.0000 </r>
       <r>   -8.2064    1.0000 </r>
       <r>   -8.2064    1.0000 </r>
       <r>   -8.2064    1.0000 </r>
       <r>   -8.2064    1.0000 </r>
       <r>   -8.2064    1.0000 </r>
       <r>   -8.2064    1.0000 </r>
       <r>   -8.2016    1.0000 </r>
       <r>   -8.2016    1.0000 </r>
       <r>   -8.2016    1.0000 </r>
       <r>   -8.1974    1.0000 </r>
       <r>   -8.1974    1.0000 </r>
       <r>   -8.1974    1.0000 </r>
       <r>   -8.1959    1.0000 </r>
       <r>   -8.1959    1.0000 </r>
       <r>   -8.1959    1.0000 </r>
       <r>   -8.1959    1.0000 </r>
       <r>   -8.1959    1.0000 </r>
       <r>   -8.1959    1.0000 </r>
       <r>   -8.1949    1.0000 </r>
       <r>   -8.1949    1.0000 </r>
       <r>   -8.1949    1.0000 </r>
       <r>   -8.1732    1.0000 </r>
       <r>   -8.1641    1.0000 </r>
       <r>   -8.1641    1.0000 </r>
       <r>   -8.1641    1.0000 </r>
       <r>   -8.1529    1.0000 </r>
       <r>   -8.1529    1.0000 </r>
       <r>   -8.1529    1.0000 </r>
       <r>   -8.1344    1.0000 </r>
       <r>   -8.1053    1.0000 </r>
       <r>   -8.1053    1.0000 </r>
       <r>   -8.0989    1.0000 </r>
       <r>   -8.0989    1.0000 </r>
       <r>   -8.0989    1.0000 </r>
       <r>   -8.0966    1.0000 </r>
       <r>   -8.0966    1.0000 </r>
       <r>   -8.0966    1.0000 </r>
       <r>   -8.0959    1.0000 </r>
       <r>   -8.0959    1.0000 </r>
       <r>   -8.0959    1.0000 </r>
       <r>   -8.0929    1.0000 </r>
       <r>   -8.0929    1.0000 </r>
       <r>   -8.0929    1.0000 </r>
       <r>   -8.0926    1.0000 </r>
       <r>   -8.0926    1.0000 </r>
       <r>   -8.0828    1.0000 </r>
       <r>   -8.0828    1.0000 </r>
       <r>   -8.0828    1.0000 </r>
       <r>   -8.0794    1.0000 </r>
       <r>   -8.0794    1.0000 </r>
       <r>   -8.0794    1.0000 </r>
       <r>   -8.0794    1.0000 </r>
       <r>   -8.0794    1.0000 </r>
       <r>   -8.0794    1.0000 </r>
       <r>   -8.0781    1.0000 </r>
       <r>   -8.0781    1.0000 </r>
       <r>   -8.0781    1.0000 </r>
       <r>   -8.0771    1.0000 </r>
       <r>   -8.0771    1.0000 </r>
       <r>   -8.0771    1.0000 </r>
       <r>   -8.0746    1.0000 </r>
       <r>   -8.0746    1.0000 </r>
       <r>   -8.0746    1.0000 </r>
       <r>   -8.0738    1.0000 </r>
       <r>   -8.0738    1.0000 </r>
       <r>   -8.0738    1.0000 </r>
       <r>   -8.0738    1.0000 </r>
       <r>   -8.0738    1.0000 </r>
       <r>   -8.0738    1.0000 </r>
       <r>   -8.0722    1.0000 </r>
       <r>   -8.0722    1.0000 </r>
       <r>   -8.0722    1.0000 </r>
       <r>   -8.0722    1.0000 </r>
       <r>   -8.0722    1.0000 </r>
       <r>   -8.0722    1.0000 </r>
       <r>   -8.0707    1.0000 </r>
       <r>   -8.0707    1.0000 </r>
       <r>   -8.0707    1.0000 </r>
       <r>   -8.0701    1.0000 </r>
       <r>   -8.0701    1.0000 </r>
       <r>   -8.0701    1.0000 </r>
       <r>   -8.0654    1.0000 </r>
       <r>   -8.0654    1.0000 </r>
       <r>   -8.0654    1.0000 </r>
       <r>   -8.0646    1.0000 </r>
       <r>   -8.0646    1.0000 </r>
       <r>   -8.0646    1.0000 </r>
       <r>   -8.0646    1.0000 </r>
       <r>   -8.0646    1.0000 </r>
       <r>   -8.0646    1.0000 </r>
       <r>   -8.0599    1.0000 </r>
       <r>   -8.0599    1.0000 </r>
       <r>   -8.0599    1.0000 </r>
       <r>   -8.0334    1.0000 </r>
       <r>   -8.0334    1.0000 </r>
       <r>   -8.0334    1.0000 </r>
       <r>   -8.0279    1.0000 </r>
       <r>   -8.0279    1.0000 </r>
       <r>   -8.0279    1.0000 </r>
       <r>   -8.0258    1.0000 </r>
       <r>   -8.0258    1.0000 </r>
       <r>   -8.0258    1.0000 </r>
       <r>   -8.0258    1.0000 </r>
       <r>   -8.0258    1.0000 </r>
       <r>   -8.0258    1.0000 </r>
       <r>   -8.0216    1.0000 </r>
       <r>   -8.0216    1.0000 </r>
       <r>   -8.0216    1.0000 </r>
       <r>   -8.0216    1.0000 </r>
       <r>   -8.0216    1.0000 </r>
       <r>   -8.0216    1.0000 </r>
       <r>   -8.0204    1.0000 </r>
       <r>   -8.0204    1.0000 </r>
       <r>   -8.0204    1.0000 </r>
       <r>   -8.0166    1.0000 </r>
       <r>   -8.0166    1.0000 </r>
       <r>   -8.0166    1.0000 </r>
       <r>   -8.0130    1.0000 </r>
       <r>   -8.0130    1.0000 </r>
       <r>   -8.0130    1.0000 </r>
       <r>   -8.0119    1.0000 </r>
       <r>   -8.0119    1.0000 </r>
       <r>   -8.0119    1.0000 </r>
       <r>   -8.0094    1.0000 </r>
       <r>   -8.0094    1.0000 </r>
       <r>   -8.0092    1.0000 </r>
       <r>   -8.0092    1.0000 </r>
       <r>   -8.0092    1.0000 </r>
       <r>   -8.0089    1.0000 </r>
       <r>   -8.0089    1.0000 </r>
       <r>   -8.0087    1.0000 </r>
       <r>   -8.0087    1.0000 </r>
       <r>   -8.0087    1.0000 </r>
[...]
      </set>
     </set>
    </set>
   </array>
  </eigenvalues>
  <separator name="orbital magnetization" >
   <v name="MAGDIPOLOUT">      0.00000000      0.00000000      0.00000000</v>
  </separator>
  <dos>
   <i name="efermi">      7.91810079 </i>
   <total>
    <array>
     <dimension dim="1">gridpoints</dimension>
     <dimension dim="2">spin</dimension>
     <field>energy</field>
     <field>total</field>
     <field>integrated</field>
     <set>
      <set comment="spin 1">
       <r>    -9.2530     0.0000     0.0000 </r>
       <r>    -9.1774     0.0000     0.0000 </r>
       <r>    -9.1018     0.0000     0.0000 </r>
       <r>    -9.0262     0.0000     0.0000 </r>
       <r>    -8.9506     0.0000     0.0000 </r>
       <r>    -8.8750     0.0000     0.0000 </r>
       <r>    -8.7994     0.0000     0.0000 </r>
       <r>    -8.7237     0.0000     0.0000 </r>
       <r>    -8.6481     0.0000     0.0000 </r>
       <r>    -8.5725     0.0000     0.0000 </r>
       <r>    -8.4969     0.0000     0.0000 </r>
       <r>    -8.4213     0.0000     0.0000 </r>
       <r>    -8.3457     0.0000     0.0000 </r>
       <r>    -8.2701     0.0000     0.0000 </r>
       <r>    -8.1945   426.3532    32.2331 </r>
       <r>    -8.1189   406.1181    63.9484 </r>
       <r>    -8.0433  1706.9337   193.0810 </r>
       <r>    -7.9677  1675.1806   320.0000 </r>
       <r>    -7.8921     0.0000   320.0000 </r>
       <r>    -7.8165     0.0000   320.0000 </r>
       <r>    -7.7409     0.0000   320.0000 </r>
       <r>    -7.6653     0.0000   320.0000 </r>
       <r>    -7.5897     0.0000   320.0000 </r>
       <r>    -7.5141     0.0000   320.0000 </r>
       <r>    -7.4385     0.0000   320.0000 </r>
       <r>    -7.3629     0.0000   320.0000 </r>
       <r>    -7.2873     0.0000   320.0000 </r>
       <r>    -7.2117     0.0000   320.0000 </r>
       <r>    -7.1361     0.0000   320.0000 </r>
       <r>    -7.0605     0.0000   320.0000 </r>
       <r>    -6.9849     0.0000   320.0000 </r>
       <r>    -6.9093     0.0000   320.0000 </r>
       <r>    -6.8337     0.0000   320.0000 </r>
       <r>    -6.7581     0.0000   320.0000 </r>
       <r>    -6.6825     0.0000   320.0000 </r>
       <r>    -6.6069     0.0000   320.0000 </r>
       <r>    -6.5313     0.0000   320.0000 </r>
       <r>    -6.4557     0.0000   320.0000 </r>
       <r>    -6.3801     0.0000   320.0000 </r>
       <r>    -6.3045     0.0000   320.0000 </r>
       <r>    -6.2289     0.0000   320.0000 </r>
       <r>    -6.1533     0.0000   320.0000 </r>
       <r>    -6.0777     0.0000   320.0000 </r>
       <r>    -6.0021     0.0000   320.0000 </r>
       <r>    -5.9265     0.0000   320.0000 </r>
       <r>    -5.8509     0.6646   320.0502 </r>
       <r>    -5.7753     0.3151   320.0741 </r>
       <r>    -5.6997     5.8770   320.5184 </r>
       <r>    -5.6241     0.0003   320.5185 </r>
       <r>    -5.5485    11.7572   321.4074 </r>
       <r>    -5.4729     2.0448   321.5620 </r>
       <r>    -5.3973     5.7936   322.0000 </r>
       <r>    -5.3217     5.8420   322.4417 </r>
       <r>    -5.2461     0.0002   322.4445 </r>
       <r>    -5.1705    23.5149   324.2222 </r>
       <r>    -5.0949     9.8702   324.9684 </r>
       <r>    -5.0193    13.6449   326.0000 </r>
       <r>    -4.9437     0.0000   326.0000 </r>
       <r>    -4.8681     0.0542   326.0041 </r>
       <r>    -4.7925    11.7033   326.8889 </r>
       <r>    -4.7169    25.6492   328.8280 </r>
       <r>    -4.6413     3.6454   329.1111 </r>
       <r>    -4.5656    23.5150   330.8889 </r>
       <r>    -4.4900     8.7699   331.5519 </r>
       <r>    -4.4144    15.3573   332.7129 </r>
       <r>    -4.3388     7.2262   333.2593 </r>
       <r>    -4.2632    10.0713   334.0207 </r>
       <r>    -4.1876    13.4750   335.0394 </r>
       <r>    -4.1120    46.9987   338.5926 </r>
       <r>    -4.0364     0.0000   338.5926 </r>
       <r>    -3.9608     0.0000   338.5926 </r>
       <r>    -3.8852    22.3588   340.2830 </r>
       <r>    -3.8096     5.4785   340.8148 </r>
       <r>    -3.7340    28.1428   342.9425 </r>
       <r>    -3.6584    53.1435   346.9602 </r>
       <r>    -3.5828     0.0000   347.0370 </r>
       <r>    -3.5072    23.7551   348.8330 </r>
       <r>    -3.4316    51.4504   352.7230 </r>
       <r>    -3.3560    22.7682   354.4444 </r>
       <r>    -3.2804    23.4643   356.2184 </r>
       <r>    -3.2048    23.4874   357.9979 </r>
       <r>    -3.1292     0.0000   358.0000 </r>
       <r>    -3.0536    70.3936   363.3219 </r>
       <r>    -2.9780     0.0000   363.3333 </r>
       <r>    -2.9024     0.1051   363.3413 </r>
       <r>    -2.8268     8.4762   363.9821 </r>
       <r>    -2.7512    67.7345   369.1029 </r>
       <r>    -2.6756     2.0156   369.2635 </r>
       <r>    -2.6000    97.5540   376.6388 </r>
       <r>    -2.5244     0.0000   377.1111 </r>
       <r>    -2.4488     0.0000   377.1111 </r>
       <r>    -2.3732    23.5150   378.8889 </r>
       <r>    -2.2976     0.0000   378.8889 </r>
       <r>    -2.2220    23.5570   380.6698 </r>
       <r>    -2.1464    26.4129   382.6667 </r>
       <r>    -2.0708    17.5960   383.9970 </r>
       <r>    -1.9952     0.0000   384.0000 </r>
       <r>    -1.9196     0.0000   384.0000 </r>
       <r>    -1.8440     0.0000   384.0000 </r>
       <r>    -1.7684     0.0000   384.0000 </r>
       <r>    -1.6928     0.0000   384.0000 </r>
       <r>    -1.6172     0.0000   384.0000 </r>
       <r>    -1.5416     0.0000   384.0000 </r>
       <r>    -1.4660     0.0000   384.0000 </r>
       <r>    -1.3904     0.0000   384.0000 </r>
       <r>    -1.3148     0.0000   384.0000 </r>
       <r>    -1.2392     0.0000   384.0000 </r>
       <r>    -1.1636     0.0000   384.0000 </r>
       <r>    -1.0880     0.0000   384.0000 </r>
       <r>    -1.0124     0.0000   384.0000 </r>
       <r>    -0.9368     0.0000   384.0000 </r>
       <r>    -0.8612     0.0000   384.0000 </r>
       <r>    -0.7856     0.0000   384.0000 </r>
       <r>    -0.7100     0.0000   384.0000 </r>
       <r>    -0.6344     0.0000   384.0000 </r>
       <r>    -0.5588     0.0000   384.0000 </r>
       <r>    -0.4832     0.0001   384.0000 </r>
       <r>    -0.4075     4.8308   384.3652 </r>
       <r>    -0.3319    18.9815   385.8003 </r>
       <r>    -0.2563    11.7510   386.8884 </r>
       <r>    -0.1807     9.3773   387.5978 </r>
       <r>    -0.1051    23.1073   389.4074 </r>
       <r>    -0.0295    23.3995   391.1764 </r>
       <r>     0.0461     0.3194   391.2093 </r>
       <r>     0.1217    93.5808   398.2842 </r>
       <r>     0.1973    59.9748   402.8305 </r>
       <r>     0.2729    44.4766   406.1930 </r>
       <r>     0.3485    70.6057   411.6353 </r>
       <r>     0.4241    29.3190   413.8518 </r>
       <r>     0.4997     0.0000   413.8519 </r>
       <r>     0.5753     0.0000   413.8519 </r>
       <r>     0.6509    14.8476   414.9744 </r>
       <r>     0.7265    29.7301   417.2220 </r>
       <r>     0.8021     6.7025   417.9141 </r>
       <r>     0.8777    63.8426   422.7407 </r>
       <r>     0.9533     0.0000   422.7407 </r>
       <r>     1.0289     0.0000   422.7407 </r>
       <r>     1.1045     0.0000   422.7407 </r>
       <r>     1.1801     0.0001   422.7408 </r>
       <r>     1.2557    23.5149   424.5185 </r>
       <r>     1.3313     0.0000   424.5185 </r>
       <r>     1.4069    32.1489   426.9490 </r>
       <r>     1.4825     0.0000   427.1852 </r>
       <r>     1.5581     7.8365   427.7776 </r>
       <r>     1.6337    47.0300   431.3333 </r>
       <r>     1.7093    23.5080   433.1106 </r>
       <r>     1.7849     0.0000   433.1111 </r>
       <r>     1.8605     0.1882   433.1253 </r>
       <r>     1.9361     5.6906   433.5556 </r>
       <r>     2.0117     0.0000   433.5556 </r>
       <r>     2.0873     0.0000   433.5556 </r>
       <r>     2.1629     0.0000   433.5556 </r>
       <r>     2.2385    23.1374   435.3048 </r>
       <r>     2.3141     0.0000   435.3333 </r>
       <r>     2.3897     0.0000   435.3333 </r>
       <r>     2.4653     0.0000   435.3333 </r>
       <r>     2.5409    37.4378   438.1637 </r>
       <r>     2.6165    21.0104   439.7778 </r>
       <r>     2.6921     2.0749   439.9346 </r>
       <r>     2.7677    44.9458   443.3326 </r>
       <r>     2.8433    23.5086   445.1106 </r>
       <r>     2.9189     0.0000   445.1111 </r>
       <r>     2.9945    23.5144   446.8888 </r>
       <r>     3.0701    75.7719   452.6174 </r>
       <r>     3.1457    34.7459   455.2935 </r>
       <r>     3.2213    16.3344   456.5682 </r>
       <r>     3.2969    45.0265   459.9723 </r>
       <r>     3.3725     7.0544   460.5065 </r>
       <r>     3.4481    63.9539   465.3416 </r>
       <r>     3.5237    39.6323   468.6665 </r>
       <r>     3.5993     0.0008   468.6667 </r>
       <r>     3.6749    23.5142   470.4444 </r>
       <r>     3.7506     0.0000   470.4444 </r>
       <r>     3.8262     9.2696   471.1452 </r>
       <r>     3.9018    67.5329   476.4479 </r>
       <r>     3.9774    36.9573   479.3333 </r>
       <r>     4.0530    66.2588   484.3426 </r>
       <r>     4.1286    26.7444   486.6886 </r>
       <r>     4.2042    24.7788   488.6667 </r>
       <r>     4.2798    23.5817   490.4495 </r>
       <r>     4.3554    56.7922   494.7443 </r>
       <r>     4.4310    58.7522   499.3333 </r>
       <r>     4.5066    35.7289   502.0345 </r>
       <r>     4.5822    47.0014   506.4444 </r>
       <r>     4.6578     0.0000   506.4444 </r>
       <r>     4.7334    17.3291   507.7546 </r>
       <r>     4.8090    72.1557   513.2111 </r>
       <r>     4.8846    30.6616   515.5291 </r>
       <r>     4.9602    47.0293   519.4815 </r>
       <r>     5.0358     0.0000   519.4815 </r>
       <r>     5.1114    58.7630   523.9241 </r>
       <r>     5.1870    52.1768   527.8706 </r>
       <r>     5.2626    24.0791   529.7463 </r>
       <r>     5.3382    46.4909   533.2611 </r>
       <r>     5.4138    35.2475   535.9259 </r>
       <r>     5.4894    22.8738   537.6552 </r>
       <r>     5.5650    23.4094   539.4735 </r>
       <r>     5.6406    37.6248   542.3260 </r>
       <r>     5.7162    46.8532   545.8751 </r>
       <r>     5.7918    44.6994   549.2593 </r>
       <r>     5.8674     0.0000   549.2593 </r>
       <r>     5.9430    23.0810   551.0042 </r>
       <r>     6.0186     0.0418   551.0402 </r>
       <r>     6.0942    82.2617   557.2593 </r>
       <r>     6.1698    54.4626   561.3769 </r>
       <r>     6.2454     0.0579   561.4118 </r>
       <r>     6.3210    11.6998   562.2963 </r>
       <r>     6.3966    23.5148   564.0741 </r>
       <r>     6.4722    15.6767   565.2593 </r>
       <r>     6.5478    22.2879   566.9443 </r>
       <r>     6.6234     0.0000   567.0370 </r>
       <r>     6.6990    11.7526   567.9256 </r>
       <r>     6.7746     0.3602   567.9532 </r>
       <r>     6.8502    34.2151   570.5399 </r>
       <r>     6.9258    16.4516   571.9259 </r>
       <r>     7.0014     0.2437   571.9443 </r>
       <r>     7.0770    11.5138   572.8148 </r>
       <r>     7.1526     0.0000   572.8148 </r>
       <r>     7.2282    16.4254   574.0566 </r>
       <r>     7.3038    11.0088   574.8889 </r>
       <r>     7.3794     0.0000   574.8889 </r>
       <r>     7.4550     0.0000   574.8889 </r>
       <r>     7.5306     0.0000   574.8889 </r>
       <r>     7.6062     0.0000   574.8889 </r>
       <r>     7.6818    11.7575   575.7778 </r>
       <r>     7.7574     0.0000   575.7778 </r>
       <r>     7.8330     2.9208   575.9986 </r>
       <r>     7.9087     0.0000   576.0000 </r>
       <r>     7.9843     0.0000   576.0000 </r>
       <r>     8.0599     0.0000   576.0000 </r>
       <r>     8.1355     5.6991   576.4309 </r>
       <r>     8.2111     0.8356   576.5076 </r>
       <r>     8.2867     7.9825   577.1111 </r>
       <r>     8.3623     0.0003   577.1111 </r>
       <r>     8.4379     2.9391   577.3333 </r>
       <r>     8.5135     5.3669   577.7391 </r>
       <r>     8.5891     6.3907   578.2222 </r>
       <r>     8.6647    29.3919   580.4443 </r>
       <r>     8.7403     0.6635   580.4946 </r>
       <r>     8.8159    31.6715   582.8890 </r>
       <r>     8.8915    11.7568   583.8518 </r>
       <r>     8.9671    26.0743   585.8231 </r>
       <r>     9.0427    35.2715   588.8889 </r>
       <r>     9.1183     1.0146   588.9656 </r>
       <r>     9.1939    10.7445   589.7779 </r>
       <r>     9.2695    25.6686   591.7185 </r>
       <r>     9.3451    16.5856   593.2539 </r>
       <r>     9.4207    77.4565   599.1098 </r>
       <r>     9.4963    69.0425   604.3308 </r>
       <r>     9.5719    37.0562   607.2460 </r>
       <r>     9.6475    23.5033   609.0370 </r>
       <r>     9.7231    18.3295   610.4228 </r>
       <r>     9.7987     0.0000   610.8889 </r>
       <r>     9.8743    47.1161   614.4509 </r>
       <r>     9.9499    52.3465   618.4091 </r>
       <r>    10.0255    36.2128   621.1468 </r>
       <r>    10.1011    46.5581   624.6667 </r>
       <r>    10.1767    78.0383   630.5665 </r>
       <r>    10.2523    58.7875   635.3333 </r>
       <r>    10.3279     0.0000   635.3333 </r>
       <r>    10.4035    61.3546   639.9719 </r>
       <r>    10.4791    23.7542   641.7766 </r>
       <r>    10.5547    23.0002   643.5166 </r>
       <r>    10.6303     5.8752   643.9997 </r>
       <r>    10.7059    11.7573   644.8889 </r>
       <r>    10.7815    52.4872   648.8570 </r>
       <r>    10.8571    16.0459   650.1020 </r>
       <r>    10.9327    51.4529   653.9919 </r>
       <r>    11.0083    61.6260   658.6510 </r>
       <r>    11.0839    47.0232   662.2222 </r>
       <r>    11.1595   100.8200   669.8444 </r>
       <r>    11.2351    12.6329   671.4074 </r>
       <r>    11.3107    45.2664   674.8296 </r>
       <r>    11.3863    24.6155   676.7428 </r>
       <r>    11.4619    70.9786   682.1089 </r>
       <r>    11.5375    47.0376   685.7783 </r>
       <r>    11.6131    15.6691   686.9630 </r>
       <r>    11.6887    23.5143   688.7407 </r>
       <r>    11.7643    23.5148   690.5185 </r>
       <r>    11.8399    45.0826   693.9269 </r>
       <r>    11.9155     0.0000   694.0741 </r>
       <r>    11.9911    31.4397   696.4510 </r>
       <r>    12.0668    22.8444   698.2025 </r>
       <r>    12.1424    12.7171   699.2592 </r>
       <r>    12.2180     0.0000   699.2593 </r>
       <r>    12.2936     0.0005   699.2593 </r>
       <r>    12.3692     7.3497   699.8149 </r>
       <r>    12.4448     2.4423   700.0000 </r>
       <r>    12.5204     0.0000   700.0000 </r>
       <r>    12.5960     0.0000   700.0000 </r>
       <r>    12.6716     0.0000   700.0000 </r>
       <r>    12.7472     0.0000   700.0000 </r>
       <r>    12.8228     0.0000   700.0000 </r>
       <r>    12.8984     0.0000   700.0000 </r>
       <r>    12.9740     0.0000   700.0000 </r>
       <r>    13.0496     0.0000   700.0000 </r>
       <r>    13.1252     0.0000   700.0000 </r>
       <r>    13.2008     0.0000   700.0000 </r>
       <r>    13.2764     0.0000   700.0000 </r>
       <r>    13.3520     0.0000   700.0000 </r>
       <r>    13.4276     0.0000   700.0000 </r>
      </set>
     </set>
    </array>
   </total>
  </dos>
 </calculation>
 <structure name="finalpos" >
  <crystal>
   <varray name="basis" >
    <v>      11.21588723       0.00000000       0.00000000 </v>
    <v>       0.00000000      11.21588723       0.00000000 </v>
    <v>       0.00000000       0.00000000      11.21588723 </v>
   </varray>
   <i name="volume">   1410.91516844 </i>
   <varray name="rec_basis" >
    <v>       0.08915924       0.00000000       0.00000000 </v>
    <v>       0.00000000       0.08915924       0.00000000 </v>
    <v>       0.00000000       0.00000000       0.08915924 </v>
   </varray>
  </crystal>
  <varray name="positions" >
   <v>       0.00000000       0.00000000       0.00000000 </v>
   <v>       0.50000000       0.00000000       0.00000000 </v>
   <v>       0.00000000       0.25000000       0.25000000 </v>
   <v>       0.50000000       0.25000000       0.25000000 </v>
   <v>       0.25000000       0.00000000       0.75000000 </v>
   <v>       0.75000000       0.00000000       0.75000000 </v>
   <v>       0.25000000       0.25000000       0.50000000 </v>
   <v>       0.75000000       0.25000000       0.50000000 </v>
   <v>       0.25000000       0.50000000       0.25000000 </v>
   <v>       0.75000000       0.50000000       0.25000000 </v>
   <v>       0.25000000       0.75000000       0.00000000 </v>
   <v>       0.75000000       0.75000000       0.00000000 </v>
   <v>       0.00000000       0.75000000       0.25000000 </v>
   <v>       0.50000000       0.75000000       0.25000000 </v>
   <v>       0.00000000       0.50000000       0.50000000 </v>
   <v>       0.50000000       0.50000000       0.50000000 </v>
   <v>       0.25000000       0.75000000       0.50000000 </v>
   <v>       0.75000000       0.75000000       0.50000000 </v>
   <v>       0.25000000       0.00000000       0.25000000 </v>
   <v>       0.75000000       0.00000000       0.25000000 </v>
   <v>       0.00000000       0.00000000       0.50000000 </v>
   <v>       0.50000000       0.00000000       0.50000000 </v>
   <v>       0.25000000       0.50000000       0.75000000 </v>
   <v>       0.75000000       0.50000000       0.75000000 </v>
   <v>       0.00000000       0.25000000       0.75000000 </v>
   <v>       0.50000000       0.25000000       0.75000000 </v>
   <v>       0.00000000       0.75000000       0.75000000 </v>
   <v>       0.50000000       0.75000000       0.75000000 </v>
   <v>       0.00000000       0.50000000       0.00000000 </v>
   <v>       0.50000000       0.50000000       0.00000000 </v>
   <v>       0.25000000       0.25000000       0.00000000 </v>
   <v>       0.75000000       0.25000000       0.00000000 </v>
   <v>       0.62500000       0.62500000       0.62500000 </v>
   <v>       0.12500000       0.62500000       0.62500000 </v>
   <v>       0.62500000       0.87500000       0.87500000 </v>
   <v>       0.12500000       0.87500000       0.87500000 </v>
   <v>       0.87500000       0.62500000       0.37500000 </v>
   <v>       0.37500000       0.62500000       0.37500000 </v>
   <v>       0.87500000       0.87500000       0.12500000 </v>
   <v>       0.37500000       0.87500000       0.12500000 </v>
   <v>       0.87500000       0.12500000       0.87500000 </v>
   <v>       0.37500000       0.12500000       0.87500000 </v>
   <v>       0.87500000       0.37500000       0.62500000 </v>
   <v>       0.37500000       0.37500000       0.62500000 </v>
   <v>       0.62500000       0.37500000       0.87500000 </v>
   <v>       0.12500000       0.37500000       0.87500000 </v>
   <v>       0.62500000       0.12500000       0.12500000 </v>
   <v>       0.12500000       0.12500000       0.12500000 </v>
   <v>       0.87500000       0.37500000       0.12500000 </v>
   <v>       0.37500000       0.37500000       0.12500000 </v>
   <v>       0.87500000       0.62500000       0.87500000 </v>
   <v>       0.37500000       0.62500000       0.87500000 </v>
   <v>       0.62500000       0.62500000       0.12500000 </v>
   <v>       0.12500000       0.62500000       0.12500000 </v>
   <v>       0.87500000       0.12500000       0.37500000 </v>
   <v>       0.37500000       0.12500000       0.37500000 </v>
   <v>       0.62500000       0.87500000       0.37500000 </v>
   <v>       0.12500000       0.87500000       0.37500000 </v>
   <v>       0.62500000       0.37500000       0.37500000 </v>
   <v>       0.12500000       0.37500000       0.37500000 </v>
   <v>       0.62500000       0.12500000       0.62500000 </v>
   <v>       0.12500000       0.12500000       0.62500000 </v>
   <v>       0.87500000       0.87500000       0.62500000 </v>
   <v>       0.37500000       0.87500000       0.62500000 </v>
  </varray>
 </structure>
</modeling>
