 vasp.5.4.1 05Feb16 (build Aug 18 2016 13:20:29) complex                        
  
 executed on           IFC91_ompi date 2018.08.03  17:26:43
 running on   28 total cores
 distrk:  each k-point on   28 cores,    1 groups
 distr:  one band on NCORES_PER_BAND=   4 cores,    7 groups


--------------------------------------------------------------------------------------------------------


 INCAR:
 POTCAR:    PAW Ga_d 06Jul2010                    
 POTCAR:    PAW As_d 11Apr2003                    
 POTCAR:    PAW Ga_d 06Jul2010                    
   VRHFIN =Ga: s2p1                                                             
   LEXCH  = CA                                                                  
   EATOM  =  2154.4592 eV,  158.3483 Ry                                         
                                                                                
   TITEL  = PAW Ga_d 06Jul2010                                                  
   LULTRA =        F    use ultrasoft PP ?                                      
   IUNSCR =        1    unscreen: 0-lin 1-nonlin 2-no                           
   RPACOR =    1.700    partial core radius                                     
   POMASS =   69.723; ZVAL   =   13.000    mass and valenz                      
   RCORE  =    2.300    outmost cutoff radius                                   
   RWIGS  =    2.300; RWIGS  =    1.217    wigner-seitz radius (au A)           
   ENMAX  =  282.829; ENMIN  =  212.121 eV                                      
   ICORE  =        3    local potential                                         
   LCOR   =        T    correct aug charges                                     
   LPAW   =        T    paw PP                                                  
   EAUG   =  490.690                                                            
   DEXC   =    0.000                                                            
   RMAX   =    2.341    core radius for proj-oper                               
   RAUG   =    1.300    factor for augmentation sphere                          
   RDEP   =    2.413    radius for radial grids                                 
   RDEPT  =    1.856    core radius for aug-charge                              
                                                                                
   Atomic configuration                                                         
    9 entries                                                                   
     n  l   j            E        occ.                                          
     1  0  0.50    -10177.9539   2.0000                                         
     2  0  0.50     -1257.0037   2.0000                                         
     2  1  1.50     -1096.5304   6.0000                                         
     3  0  0.50      -147.0449   2.0000                                         
     3  1  1.50       -98.5146   6.0000                                         
     3  2  2.50       -19.4350  10.0000                                         
     4  0  0.50        -9.1573   2.0000                                         
     4  1  0.50        -2.7399   1.0000                                         
     4  3  2.50        -2.7416   0.0000                                         
   Description                                                                  
     l       E           TYP  RCUT    TYP  RCUT                                 
     2    -19.4350265     23  2.300                                             
     2     -5.4423304     23  2.300                                             
     0     -9.1573136     23  2.300                                             
     0     68.0291300     23  2.300                                             
     1     -2.7399180     23  2.100                                             
     1     81.6349560     23  2.300                                             
     3      6.8029130     23  2.300                                             
  local pseudopotential read in
  partial core-charges read in
  partial kinetic energy density read in
  atomic valenz-charges read in
  non local Contribution for L=           2  read in
    real space projection operators read in
  non local Contribution for L=           2  read in
    real space projection operators read in
  non local Contribution for L=           0  read in
    real space projection operators read in
  non local Contribution for L=           0  read in
    real space projection operators read in
  non local Contribution for L=           1  read in
    real space projection operators read in
  non local Contribution for L=           1  read in
    real space projection operators read in
    PAW grid and wavefunctions read in
 
   number of l-projection  operators is LMAX  =           6
   number of lm-projection operators is LMMAX =          18
 
 POTCAR:    PAW As_d 11Apr2003                    
   VRHFIN =As: d10s2p3                                                          
   LEXCH  = CA                                                                  
   EATOM  =  3100.2560 eV,  227.8624 Ry                                         
                                                                                
   TITEL  = PAW As_d 11Apr2003                                                  
   LULTRA =        F    use ultrasoft PP ?                                      
   IUNSCR =        1    unscreen: 0-lin 1-nonlin 2-no                           
   RPACOR =    2.000    partial core radius                                     
   POMASS =   74.922; ZVAL   =   15.000    mass and valenz                      
   RCORE  =    2.300    outmost cutoff radius                                   
   RWIGS  =    2.300; RWIGS  =    1.217    wigner-seitz radius (au A)           
   ENMAX  =  288.762; ENMIN  =  216.572 eV                                      
   ICORE  =        3    local potential                                         
   LCOR   =        T    correct aug charges                                     
   LPAW   =        T    paw PP                                                  
   EAUG   =  525.949                                                            
   DEXC   =    0.000                                                            
   RMAX   =    2.360    core radius for proj-oper                               
   RAUG   =    1.300    factor for augmentation sphere                          
   RDEP   =    2.432    radius for radial grids                                 
   RDEPT  =    1.871    core radius for aug-charge                              
                                                                                
   Atomic configuration                                                         
    9 entries                                                                   
     n  l   j            E        occ.                                          
     1  0  0.50    -11659.1331   2.0000                                         
     2  0  0.50     -1480.5455   2.0000                                         
     2  1  1.50     -1300.8395   6.0000                                         
     3  0  0.50      -189.0128   2.0000                                         
     3  1  1.50      -133.2331   6.0000                                         
     3  2  2.50       -40.9396  10.0000                                         
     4  0  0.50       -14.6732   2.0000                                         
     4  1  0.50        -5.3484   3.0000                                         
     4  3  2.50        -5.4423   0.0000                                         
   Description                                                                  
     l       E           TYP  RCUT    TYP  RCUT                                 
     2    -40.9396402     23  2.300                                             
     2     -1.3605826     23  2.300                                             
     0    -14.6731860     23  2.300                                             
     0    -12.1858709     23  2.300                                             
     1     -5.3484093     23  2.300                                             
     1      1.7733903     23  2.300                                             
     3     -1.3605826      7  2.300                                             
  local pseudopotential read in
  partial core-charges read in
  partial kinetic energy density read in
  atomic valenz-charges read in
  non local Contribution for L=           2  read in
    real space projection operators read in
  non local Contribution for L=           2  read in
    real space projection operators read in
  non local Contribution for L=           0  read in
    real space projection operators read in
  non local Contribution for L=           0  read in
    real space projection operators read in
  non local Contribution for L=           1  read in
    real space projection operators read in
  non local Contribution for L=           1  read in
    real space projection operators read in
    PAW grid and wavefunctions read in
 
   number of l-projection  operators is LMAX  =           6
   number of lm-projection operators is LMMAX =          18
 
 Optimization of the real space projectors (new method)

 maximal supplied QI-value         = 16.25
 optimisation between [QCUT,QGAM] = [ 11.38, 22.75] = [ 36.24,144.96] Ry 
 Optimized for a Real-space Cutoff    1.35 Angstroem

   l    n(q)    QCUT    max X(q) W(low)/X(q) W(high)/X(q)  e(spline) 
   2      8    11.376     7.160    0.23E-03    0.28E-03    0.13E-06
   2      8    11.376     5.555    0.49E-03    0.56E-03    0.20E-06
   0      9    11.376    12.310    0.60E-04    0.47E-04    0.22E-07
   0      9    11.376     6.591    0.12E-03    0.98E-04    0.49E-07
   1      9    11.376     7.817    0.22E-03    0.30E-03    0.14E-06
   1      9    11.376     2.416    0.19E-03    0.26E-03    0.13E-06
 Optimization of the real space projectors (new method)

 maximal supplied QI-value         = 16.25
 optimisation between [QCUT,QGAM] = [ 11.38, 22.75] = [ 36.24,144.96] Ry 
 Optimized for a Real-space Cutoff    1.27 Angstroem

   l    n(q)    QCUT    max X(q) W(low)/X(q) W(high)/X(q)  e(spline) 
   2      8    11.376    15.961    0.11E-03    0.23E-03    0.99E-07
   2      8    11.376     6.274    0.17E-03    0.37E-03    0.13E-06
   0      9    11.376    98.969    0.92E-04    0.20E-03    0.90E-07
   0      9    11.376    79.622    0.98E-04    0.21E-03    0.96E-07
   1      8    11.376    38.979    0.40E-03    0.88E-04    0.16E-06
   1      8    11.376    26.921    0.39E-03    0.93E-04    0.16E-06
  PAW Ga_d 06Jul2010                    :
 energy of atom  1       EATOM=-2154.4592
 kinetic energy error for atom=    0.0027 (will be added to EATOM!!)
  PAW As_d 11Apr2003                    :
 energy of atom  2       EATOM=-3100.2560
 kinetic energy error for atom=    0.0019 (will be added to EATOM!!)
 
 
 POSCAR: POSCAR with -8.23987132543              
  positions in direct lattice
  No initial velocities read in
 exchange correlation table for  LEXCH =        2
   RHO(1)=    0.500       N(1)  =     2000
   RHO(2)=  100.500       N(2)  =     4000
 


--------------------------------------------------------------------------------------------------------


 ion  position               nearest neighbor table
   1  0.000  0.000  0.000-  36 2.62  39 2.62  41 2.62  48 2.62
   2  0.500  0.000  0.000-  35 2.62  40 2.62  42 2.62  47 2.62
   3  0.000  0.250  0.250-  48 2.62  49 2.62  55 2.62  60 2.62
   4  0.500  0.250  0.250-  47 2.62  50 2.62  56 2.62  59 2.62
   5  0.250  0.000  0.750-  36 2.62  42 2.62  62 2.62  64 2.62
   6  0.750  0.000  0.750-  35 2.62  41 2.62  61 2.62  63 2.62
   7  0.250  0.250  0.500-  44 2.62  56 2.62  60 2.62  62 2.62
   8  0.750  0.250  0.500-  43 2.62  55 2.62  59 2.62  61 2.62
   9  0.250  0.500  0.250-  38 2.62  50 2.62  54 2.62  60 2.62
  10  0.750  0.500  0.250-  37 2.62  49 2.62  53 2.62  59 2.62
  11  0.250  0.750  0.000-  36 2.62  40 2.62  52 2.62  54 2.62
  12  0.750  0.750  0.000-  35 2.62  39 2.62  51 2.62  53 2.62
  13  0.000  0.750  0.250-  37 2.62  39 2.62  54 2.62  58 2.62
  14  0.500  0.750  0.250-  38 2.62  40 2.62  53 2.62  57 2.62
  15  0.000  0.500  0.500-  34 2.62  37 2.62  43 2.62  60 2.62
  16  0.500  0.500  0.500-  33 2.62  38 2.62  44 2.62  59 2.62
  17  0.250  0.750  0.500-  34 2.62  38 2.62  58 2.62  64 2.62
  18  0.750  0.750  0.500-  33 2.62  37 2.62  57 2.62  63 2.62
  19  0.250  0.000  0.250-  40 2.62  48 2.62  56 2.62  58 2.62
  20  0.750  0.000  0.250-  39 2.62  47 2.62  55 2.62  57 2.62
  21  0.000  0.000  0.500-  55 2.62  58 2.62  62 2.62  63 2.62
  22  0.500  0.000  0.500-  56 2.62  57 2.62  61 2.62  64 2.62
  23  0.250  0.500  0.750-  34 2.62  44 2.62  46 2.62  52 2.62
  24  0.750  0.500  0.750-  33 2.62  43 2.62  45 2.62  51 2.62
  25  0.000  0.250  0.750-  41 2.62  43 2.62  46 2.62  62 2.62
  26  0.500  0.250  0.750-  42 2.62  44 2.62  45 2.62  61 2.62
  27  0.000  0.750  0.750-  34 2.62  36 2.62  51 2.62  63 2.62
  28  0.500  0.750  0.750-  33 2.62  35 2.62  52 2.62  64 2.62
  29  0.000  0.500  0.000-  46 2.62  49 2.62  51 2.62  54 2.62
  30  0.500  0.500  0.000-  45 2.62  50 2.62  52 2.62  53 2.62
  31  0.250  0.250  0.000-  42 2.62  46 2.62  48 2.62  50 2.62
  32  0.750  0.250  0.000-  41 2.62  45 2.62  47 2.62  49 2.62
  33  0.625  0.625  0.625-  16 2.62  18 2.62  24 2.62  28 2.62
  34  0.125  0.625  0.625-  15 2.62  17 2.62  23 2.62  27 2.62
  35  0.625  0.875  0.875-   2 2.62   6 2.62  12 2.62  28 2.62
  36  0.125  0.875  0.875-   1 2.62   5 2.62  11 2.62  27 2.62
  37  0.875  0.625  0.375-  10 2.62  13 2.62  15 2.62  18 2.62
  38  0.375  0.625  0.375-   9 2.62  14 2.62  16 2.62  17 2.62
  39  0.875  0.875  0.125-   1 2.62  12 2.62  13 2.62  20 2.62
  40  0.375  0.875  0.125-   2 2.62  11 2.62  14 2.62  19 2.62
  41  0.875  0.125  0.875-   1 2.62   6 2.62  25 2.62  32 2.62
  42  0.375  0.125  0.875-   2 2.62   5 2.62  26 2.62  31 2.62
  43  0.875  0.375  0.625-   8 2.62  15 2.62  24 2.62  25 2.62
  44  0.375  0.375  0.625-   7 2.62  16 2.62  23 2.62  26 2.62
  45  0.625  0.375  0.875-  24 2.62  26 2.62  30 2.62  32 2.62
  46  0.125  0.375  0.875-  23 2.62  25 2.62  29 2.62  31 2.62
  47  0.625  0.125  0.125-   2 2.62   4 2.62  20 2.62  32 2.62
  48  0.125  0.125  0.125-   1 2.62   3 2.62  19 2.62  31 2.62
  49  0.875  0.375  0.125-   3 2.62  10 2.62  29 2.62  32 2.62
  50  0.375  0.375  0.125-   4 2.62   9 2.62  30 2.62  31 2.62
  51  0.875  0.625  0.875-  12 2.62  24 2.62  27 2.62  29 2.62
  52  0.375  0.625  0.875-  11 2.62  23 2.62  28 2.62  30 2.62
  53  0.625  0.625  0.125-  10 2.62  12 2.62  14 2.62  30 2.62
  54  0.125  0.625  0.125-   9 2.62  11 2.62  13 2.62  29 2.62
  55  0.875  0.125  0.375-   3 2.62   8 2.62  20 2.62  21 2.62
  56  0.375  0.125  0.375-   4 2.62   7 2.62  19 2.62  22 2.62
  57  0.625  0.875  0.375-  14 2.62  18 2.62  20 2.62  22 2.62
  58  0.125  0.875  0.375-  13 2.62  17 2.62  19 2.62  21 2.62
  59  0.625  0.375  0.375-   4 2.62   8 2.62  10 2.62  16 2.62
  60  0.125  0.375  0.375-   3 2.62   7 2.62   9 2.62  15 2.62
  61  0.625  0.125  0.625-   6 2.62   8 2.62  22 2.62  26 2.62
  62  0.125  0.125  0.625-   5 2.62   7 2.62  21 2.62  25 2.62
  63  0.875  0.875  0.625-   6 2.62  18 2.62  21 2.62  27 2.62
  64  0.375  0.875  0.625-   5 2.62  17 2.62  22 2.62  28 2.62
 
  LATTYP: Found a simple cubic cell.
 ALAT       =    12.1047826169
  
  Lattice vectors:
  
 A1 = (  12.1047826169,   0.0000000000,   0.0000000000)
 A2 = (   0.0000000000,  12.1047826169,   0.0000000000)
 A3 = (   0.0000000000,   0.0000000000,  12.1047826169)


Analysis of symmetry for initial positions (statically):
=====================================================================
 Subroutine PRICEL returns following result:
 
  LATTYP: Found a face centered cubic cell.
 ALAT       =     6.0523913085
  
  Lattice vectors:
  
 A1 = (   3.0261956542,   3.0261956542,  -0.0000000000)
 A2 = (   3.0261956542,   0.0000000000,  -3.0261956542)
 A3 = (   0.0000000000,   3.0261956542,  -3.0261956542)
 
  32 primitive cells build up your supercell.
 

 Routine SETGRP: Setting up the symmetry group for a 
 simple cubic supercell.


 Subroutine GETGRP returns: Found 24 space group operations
 (whereof 24 operations were pure point group operations)
 out of a pool of 48 trial point group operations.


The static configuration has the point symmetry T_d .


Analysis of symmetry for dynamics (positions and initial velocities):
=====================================================================
 Subroutine PRICEL returns following result:
 
  LATTYP: Found a face centered cubic cell.
 ALAT       =     6.0523913085
  
  Lattice vectors:
  
 A1 = (   3.0261956542,   3.0261956542,  -0.0000000000)
 A2 = (   3.0261956542,   0.0000000000,  -3.0261956542)
 A3 = (   0.0000000000,   3.0261956542,  -3.0261956542)
 
  32 primitive cells build up your supercell.
 

 Routine SETGRP: Setting up the symmetry group for a 
 simple cubic supercell.


 Subroutine GETGRP returns: Found 24 space group operations
 (whereof 24 operations were pure point group operations)
 out of a pool of 48 trial point group operations.


The dynamic configuration has the point symmetry T_d .


 Subroutine INISYM returns: Found 24 space group operations
 (whereof 24 operations are pure point group operations),
 and found    32 'primitive' translations

 
 
 KPOINTS: koint                                   

Automatic generation of k-mesh.
Space group operators:
 irot       det(A)        alpha          n_x          n_y          n_z        tau_x        tau_y        tau_z
    1     1.000000     0.000000     1.000000     0.000000     0.000000     0.000000     0.000000     0.000000
    2     1.000000   120.000000    -0.577350    -0.577350    -0.577350     0.000000     0.000000     0.000000
    3     1.000000   120.000000     0.577350     0.577350     0.577350     0.000000     0.000000     0.000000
    4    -1.000000    90.000000     0.000000     0.000000    -1.000000     0.000000     0.000000     0.000000
    5    -1.000000   180.000000     0.000000     0.707107     0.707107     0.000000     0.000000     0.000000
    6    -1.000000    90.000000     0.000000     1.000000     0.000000     0.000000     0.000000     0.000000
    7     1.000000   180.000000     0.000000     0.000000     1.000000     0.000000     0.000000     0.000000
    8     1.000000   120.000000    -0.577350     0.577350     0.577350     0.000000     0.000000     0.000000
    9     1.000000   120.000000    -0.577350     0.577350    -0.577350     0.000000     0.000000     0.000000
   10    -1.000000    90.000000     0.000000     0.000000     1.000000     0.000000     0.000000     0.000000
   11    -1.000000    90.000000    -1.000000     0.000000     0.000000     0.000000     0.000000     0.000000
   12    -1.000000   180.000000     0.707107     0.000000     0.707107     0.000000     0.000000     0.000000
   13     1.000000   120.000000     0.577350    -0.577350     0.577350     0.000000     0.000000     0.000000
   14     1.000000   120.000000    -0.577350    -0.577350     0.577350     0.000000     0.000000     0.000000
   15     1.000000   180.000000     1.000000     0.000000     0.000000     0.000000     0.000000     0.000000
   16    -1.000000    90.000000     0.000000    -1.000000     0.000000     0.000000     0.000000     0.000000
   17    -1.000000   180.000000     0.707107     0.707107     0.000000     0.000000     0.000000     0.000000
   18    -1.000000    90.000000     1.000000     0.000000     0.000000     0.000000     0.000000     0.000000
   19     1.000000   120.000000     0.577350    -0.577350    -0.577350     0.000000     0.000000     0.000000
   20     1.000000   180.000000     0.000000     1.000000     0.000000     0.000000     0.000000     0.000000
   21     1.000000   120.000000     0.577350     0.577350    -0.577350     0.000000     0.000000     0.000000
   22    -1.000000   180.000000     0.000000    -0.707107     0.707107     0.000000     0.000000     0.000000
   23    -1.000000   180.000000     0.707107    -0.707107     0.000000     0.000000     0.000000     0.000000
   24    -1.000000   180.000000     0.707107     0.000000    -0.707107     0.000000     0.000000     0.000000
 
 Subroutine IBZKPT returns following result:
 ===========================================
 
 Found      4 irreducible k-points:
 
 Following reciprocal coordinates:
            Coordinates               Weight
  0.000000  0.000000  0.000000      1.000000
  0.333333  0.000000  0.000000      6.000000
  0.333333  0.333333  0.000000     12.000000
  0.333333  0.333333  0.333333      8.000000
 
 Following cartesian coordinates:
            Coordinates               Weight
  0.000000  0.000000  0.000000      1.000000
  0.027537  0.000000  0.000000      6.000000
  0.027537  0.027537  0.000000     12.000000
  0.027537  0.027537  0.027537      8.000000
 


--------------------------------------------------------------------------------------------------------




 Dimension of arrays:
   k-points           NKPTS =      4   k-points in BZ     NKDIM =      4   number of bands    NBANDS=    539
   number of dos      NEDOS =    301   number of ions     NIONS =     64
   non local maximal  LDIM  =      6   non local SUM 2l+1 LMDIM =     18
   total plane-waves  NPLWV = 343000
   max r-space proj   IRMAX =   2039   max aug-charges    IRDMAX=   7527
   dimension x,y,z NGX =    70 NGY =   70 NGZ =   70
   dimension x,y,z NGXF=   140 NGYF=  140 NGZF=  140
   support grid    NGXF=   140 NGYF=  140 NGZF=  140
   ions per type =              32  32
 NGX,Y,Z   is equivalent  to a cutoff of   9.61,  9.61,  9.61 a.u.
 NGXF,Y,Z  is equivalent  to a cutoff of  19.23, 19.23, 19.23 a.u.


 I would recommend the setting:
   dimension x,y,z NGX =    66 NGY =   66 NGZ =   66
 SYSTEM =  unknown system                          
 POSCAR =  POSCAR with -8.23987132543              

 Startparameter for this run:
   NWRITE =      2    write-flag & timer
   PREC   = normal    normal or accurate (medium, high low for compatibility)
   ISTART =      0    job   : 0-new  1-cont  2-samecut
   ICHARG =      2    charge: 1-file 2-atom 10-const
   ISPIN  =      1    spin polarized calculation?
   LNONCOLLINEAR =      F non collinear calculations
   LSORBIT =      F    spin-orbit coupling
   INIWAV =      1    electr: 0-lowe 1-rand  2-diag
   LASPH  =      F    aspherical Exc in radial PAW
   METAGGA=      F    non-selfconsistent MetaGGA calc.

 Electronic Relaxation 1
   ENCUT  =  500.0 eV  36.75 Ry    6.06 a.u.  22.07 22.07 22.07*2*pi/ulx,y,z
   ENINI  =  500.0     initial cutoff
   ENAUG  =  525.9 eV  augmentation charge cutoff
   NELM   =     60;   NELMIN=  2; NELMDL= -5     # of ELM steps 
   EDIFF  = 0.1E-05   stopping-criterion for ELM
   LREAL  =      T    real-space projection
   NLSPLINE    = F    spline interpolate recip. space projectors
   LCOMPAT=      F    compatible to vasp.4.4
   GGA_COMPAT  = T    GGA compatible to vasp.4.4-vasp.4.6
   LMAXPAW     = -100 max onsite density
   LMAXMIX     =    2 max onsite mixed and CHGCAR
   VOSKOWN=      0    Vosko Wilk Nusair interpolation
   ROPT   =   -0.00050  -0.00050
 Ionic relaxation
   EDIFFG = -.2E-01   stopping-criterion for IOM
   NSW    =    100    number of steps for IOM
   NBLOCK =      1;   KBLOCK =    100    inner block; outer block 
   IBRION =      2    ionic relax: 0-MD 1-quasi-New 2-CG
   NFREE  =      1    steps in history (QN), initial steepest desc. (CG)
   ISIF   =      2    stress and relaxation
   IWAVPR =     11    prediction:  0-non 1-charg 2-wave 3-comb
   ISYM   =      2    0-nonsym 1-usesym 2-fastsym
   LCORR  =      T    Harris-Foulkes like correction to forces

   POTIM  = 0.5000    time-step for ionic-motion
   TEIN   =    0.0    initial temperature
   TEBEG  =    0.0;   TEEND  =   0.0 temperature during run
   SMASS  =  -3.00    Nose mass-parameter (am)
   estimated Nose-frequenzy (Omega)   =  0.10E-29 period in steps =****** mass=  -0.335E-26a.u.
   SCALEE = 1.0000    scale energy and forces
   NPACO  =    256;   APACO  = 16.0  distance and # of slots for P.C.
   PSTRESS=    0.0 pullay stress

  Mass of Ions in am
   POMASS =  69.72 74.92
  Ionic Valenz
   ZVAL   =  13.00 15.00
  Atomic Wigner-Seitz radii
   RWIGS  =  -1.00 -1.00
  virtual crystal weights 
   VCA    =   1.00  1.00
   NELECT =     896.0000    total number of electrons
   NUPDOWN=      -1.0000    fix difference up-down

 DOS related values:
   EMIN   =  10.00;   EMAX   =-10.00  energy-range for DOS
   EFERMI =   0.00
   ISMEAR =     0;   SIGMA  =   0.01  broadening in eV -4-tet -1-fermi 0-gaus

 Electronic relaxation 2 (details)
   IALGO  =     38    algorithm
   LDIAG  =      T    sub-space diagonalisation (order eigenvalues)
   LSUBROT=      F    optimize rotation matrix (better conditioning)
   TURBO    =      0    0=normal 1=particle mesh
   IRESTART =      0    0=no restart 2=restart with 2 vectors
   NREBOOT  =      0    no. of reboots
   NMIN     =      0    reboot dimension
   EREF     =   0.00    reference energy to select bands
   IMIX   =      4    mixing-type and parameters
     AMIX     =   0.40;   BMIX     =  1.00
     AMIX_MAG =   1.60;   BMIX_MAG =  1.00
     AMIN     =   0.10
     WC   =   100.;   INIMIX=   1;  MIXPRE=   1;  MAXMIX= -45

 Intra band minimization:
   WEIMIN = 0.0010     energy-eigenvalue tresh-hold
   EBREAK =  0.46E-09  absolut break condition
   DEPER  =   0.30     relativ break condition  

   TIME   =   0.40     timestep for ELM

  volume/ion in A,a.u.               =      27.71       187.02
  Fermi-wavevector in a.u.,A,eV,Ry     =   1.303829  2.463879 23.129483  1.699969
  Thomas-Fermi vector in A             =   2.434805
 
 Write flags
   LWAVE  =      F    write WAVECAR
   LCHARG =      F    write CHGCAR
   LVTOT  =      F    write LOCPOT, total local potential
   LVHAR  =      F    write LOCPOT, Hartree potential only
   LELF   =      F    write electronic localiz. function (ELF)
   LORBIT =      0    0 simple, 1 ext, 2 COOP (PROOUT)


 Dipole corrections
   LMONO  =      F    monopole corrections only (constant potential shift)
   LDIPOL =      F    correct potential (dipole corrections)
   IDIPOL =      0    1-x, 2-y, 3-z, 4-all directions 
   EPSILON=  1.0000000 bulk dielectric constant

 Exchange correlation treatment:
   GGA     =    --    GGA type
   LEXCH   =     2    internal setting for exchange type
   VOSKOWN=      0    Vosko Wilk Nusair interpolation
   LHFCALC =     F    Hartree Fock is set to
   LHFONE  =     F    Hartree Fock one center treatment
   AEXX    =    0.0000 exact exchange contribution

 Linear response parameters
   LEPSILON=     F    determine dielectric tensor
   LRPA    =     F    only Hartree local field effects (RPA)
   LNABLA  =     F    use nabla operator in PAW spheres
   LVEL    =     F    velocity operator in full k-point grid
   LINTERFAST=   F  fast interpolation
   KINTER  =     0    interpolate to denser k-point grid
   CSHIFT  =0.1000    complex shift for real part using Kramers Kronig
   OMEGAMAX=  -1.0    maximum frequency
   DEG_THRESHOLD= 0.2000000E-02 threshold for treating states as degnerate
   RTIME   =    0.100 relaxation time in fs

 Orbital magnetization related:
   ORBITALMAG=     F  switch on orbital magnetization
   LCHIMAG   =     F  perturbation theory with respect to B field
   DQ        =  0.001000  dq finite difference perturbation B field



--------------------------------------------------------------------------------------------------------


 conjugate gradient relaxation of ions
 charge density and potential will be updated during run
 non-spin polarized calculation
 Variant of blocked Davidson
 Davidson routine will perform the subspace rotation
 perform sub-space diagonalisation
    after iterative eigenvector-optimisation
 modified Broyden-mixing scheme, WC =      100.0
 initial mixing is a Kerker type mixing with AMIX =  0.4000 and BMIX =      1.0000
 Hartree-type preconditioning will be used
 using additional bands           91
 real space projection scheme for non local part
 use partial core corrections
 calculate Harris-corrections to forces 
   (improved forces if not selfconsistent)
 use of overlap-Matrix (Vanderbilt PP)
 Gauss-broadening in eV      SIGMA  =   0.01


--------------------------------------------------------------------------------------------------------


  energy-cutoff  :      500.00
  volume of cell :     1773.66
      direct lattice vectors                 reciprocal lattice vectors
    12.104782617  0.000000000  0.000000000     0.082611975  0.000000000  0.000000000
     0.000000000 12.104782617  0.000000000     0.000000000  0.082611975  0.000000000
     0.000000000  0.000000000 12.104782617     0.000000000  0.000000000  0.082611975

  length of vectors
    12.104782617 12.104782617 12.104782617     0.082611975  0.082611975  0.082611975


 
 k-points in units of 2pi/SCALE and weight: koint                                   
   0.00000000  0.00000000  0.00000000       0.037
   0.02753733  0.00000000  0.00000000       0.222
   0.02753733  0.02753733  0.00000000       0.444
   0.02753733  0.02753733  0.02753733       0.296
 
 k-points in reciprocal lattice and weights: koint                                   
   0.00000000  0.00000000  0.00000000       0.037
   0.33333333  0.00000000  0.00000000       0.222
   0.33333333  0.33333333  0.00000000       0.444
   0.33333333  0.33333333  0.33333333       0.296
 
 position of ions in fractional coordinates (direct lattice) 
   0.00000000  0.00000000  0.00000000
   0.50000000  0.00000000  0.00000000
   0.00000000  0.25000000  0.25000000
   0.50000000  0.25000000  0.25000000
   0.25000000  0.00000000  0.75000000
   0.75000000  0.00000000  0.75000000
   0.25000000  0.25000000  0.50000000
   0.75000000  0.25000000  0.50000000
   0.25000000  0.50000000  0.25000000
   0.75000000  0.50000000  0.25000000
   0.25000000  0.75000000  0.00000000
   0.75000000  0.75000000  0.00000000
   0.00000000  0.75000000  0.25000000
   0.50000000  0.75000000  0.25000000
   0.00000000  0.50000000  0.50000000
   0.50000000  0.50000000  0.50000000
   0.25000000  0.75000000  0.50000000
   0.75000000  0.75000000  0.50000000
   0.25000000  0.00000000  0.25000000
   0.75000000  0.00000000  0.25000000
   0.00000000  0.00000000  0.50000000
   0.50000000  0.00000000  0.50000000
   0.25000000  0.50000000  0.75000000
   0.75000000  0.50000000  0.75000000
   0.00000000  0.25000000  0.75000000
   0.50000000  0.25000000  0.75000000
   0.00000000  0.75000000  0.75000000
   0.50000000  0.75000000  0.75000000
   0.00000000  0.50000000  0.00000000
   0.50000000  0.50000000  0.00000000
   0.25000000  0.25000000  0.00000000
   0.75000000  0.25000000  0.00000000
   0.62500000  0.62500000  0.62500000
   0.12500000  0.62500000  0.62500000
   0.62500000  0.87500000  0.87500000
   0.12500000  0.87500000  0.87500000
   0.87500000  0.62500000  0.37500000
   0.37500000  0.62500000  0.37500000
   0.87500000  0.87500000  0.12500000
   0.37500000  0.87500000  0.12500000
   0.87500000  0.12500000  0.87500000
   0.37500000  0.12500000  0.87500000
   0.87500000  0.37500000  0.62500000
   0.37500000  0.37500000  0.62500000
   0.62500000  0.37500000  0.87500000
   0.12500000  0.37500000  0.87500000
   0.62500000  0.12500000  0.12500000
   0.12500000  0.12500000  0.12500000
   0.87500000  0.37500000  0.12500000
   0.37500000  0.37500000  0.12500000
   0.87500000  0.62500000  0.87500000
   0.37500000  0.62500000  0.87500000
   0.62500000  0.62500000  0.12500000
   0.12500000  0.62500000  0.12500000
   0.87500000  0.12500000  0.37500000
   0.37500000  0.12500000  0.37500000
   0.62500000  0.87500000  0.37500000
   0.12500000  0.87500000  0.37500000
   0.62500000  0.37500000  0.37500000
   0.12500000  0.37500000  0.37500000
   0.62500000  0.12500000  0.62500000
   0.12500000  0.12500000  0.62500000
   0.87500000  0.87500000  0.62500000
   0.37500000  0.87500000  0.62500000
 
 position of ions in cartesian coordinates  (Angst):
   0.00000000  0.00000000  0.00000000
   6.05239131  0.00000000  0.00000000
   0.00000000  3.02619565  3.02619565
   6.05239131  3.02619565  3.02619565
   3.02619565  0.00000000  9.07858696
   9.07858696  0.00000000  9.07858696
   3.02619565  3.02619565  6.05239131
   9.07858696  3.02619565  6.05239131
   3.02619565  6.05239131  3.02619565
   9.07858696  6.05239131  3.02619565
   3.02619565  9.07858696  0.00000000
   9.07858696  9.07858696  0.00000000
   0.00000000  9.07858696  3.02619565
   6.05239131  9.07858696  3.02619565
   0.00000000  6.05239131  6.05239131
   6.05239131  6.05239131  6.05239131
   3.02619565  9.07858696  6.05239131
   9.07858696  9.07858696  6.05239131
   3.02619565  0.00000000  3.02619565
   9.07858696  0.00000000  3.02619565
   0.00000000  0.00000000  6.05239131
   6.05239131  0.00000000  6.05239131
   3.02619565  6.05239131  9.07858696
   9.07858696  6.05239131  9.07858696
   0.00000000  3.02619565  9.07858696
   6.05239131  3.02619565  9.07858696
   0.00000000  9.07858696  9.07858696
   6.05239131  9.07858696  9.07858696
   0.00000000  6.05239131  0.00000000
   6.05239131  6.05239131  0.00000000
   3.02619565  3.02619565  0.00000000
   9.07858696  3.02619565  0.00000000
   7.56548914  7.56548914  7.56548914
   1.51309783  7.56548914  7.56548914
   7.56548914 10.59168479 10.59168479
   1.51309783 10.59168479 10.59168479
  10.59168479  7.56548914  4.53929348
   4.53929348  7.56548914  4.53929348
  10.59168479 10.59168479  1.51309783
   4.53929348 10.59168479  1.51309783
  10.59168479  1.51309783 10.59168479
   4.53929348  1.51309783 10.59168479
  10.59168479  4.53929348  7.56548914
   4.53929348  4.53929348  7.56548914
   7.56548914  4.53929348 10.59168479
   1.51309783  4.53929348 10.59168479
   7.56548914  1.51309783  1.51309783
   1.51309783  1.51309783  1.51309783
  10.59168479  4.53929348  1.51309783
   4.53929348  4.53929348  1.51309783
  10.59168479  7.56548914 10.59168479
   4.53929348  7.56548914 10.59168479
   7.56548914  7.56548914  1.51309783
   1.51309783  7.56548914  1.51309783
  10.59168479  1.51309783  4.53929348
   4.53929348  1.51309783  4.53929348
   7.56548914 10.59168479  4.53929348
   1.51309783 10.59168479  4.53929348
   7.56548914  4.53929348  4.53929348
   1.51309783  4.53929348  4.53929348
   7.56548914  1.51309783  7.56548914
   1.51309783  1.51309783  7.56548914
  10.59168479 10.59168479  7.56548914
   4.53929348 10.59168479  7.56548914
 


--------------------------------------------------------------------------------------------------------


 k-point  1 :   0.0000 0.0000 0.0000  plane waves:   45025
 k-point  2 :   0.3333 0.0000 0.0000  plane waves:   45052
 k-point  3 :   0.3333 0.3333 0.0000  plane waves:   44999
 k-point  4 :   0.3333 0.3333 0.3333  plane waves:   45014

 maximum and minimum number of plane-waves per node :     11287    11230

 maximum number of plane-waves:     45052
 maximum index in each direction: 
   IXMAX=   22   IYMAX=   22   IZMAX=   22
   IXMIN=  -22   IYMIN=  -22   IZMIN=  -22

 WARNING: aliasing errors must be expected set NGX to  90 to avoid them
 WARNING: aliasing errors must be expected set NGY to  90 to avoid them
 WARNING: aliasing errors must be expected set NGZ to  90 to avoid them
 aliasing errors are usually negligible using standard VASP settings
 and one can safely disregard these warnings

 real space projection operators:
  total allocation   :      16009.88 KBytes
  max/ min on nodes  :       4107.38       3897.56


 parallel 3D FFT for wavefunctions:
    minimum data exchange during FFTs selected (reduces bandwidth)
 parallel 3D FFT for charge:
    minimum data exchange during FFTs selected (reduces bandwidth)


 total amount of memory used by VASP on root node   109743. kBytes
========================================================================

   base      :      30000. kBytes
   nonlr-proj:       7249. kBytes
   fftplans  :       6064. kBytes
   grid      :       9092. kBytes
   one-center:        248. kBytes
   wavefun   :      57090. kBytes
 
     INWAV:  cpu time    0.0000: real time    0.0002
 Broyden mixing: mesh for mixing (old mesh)
   NGX = 45   NGY = 45   NGZ = 45
  (NGX  =140   NGY  =140   NGZ  =140)
  gives a total of  91125 points

 initial charge density was supplied:
 charge density of overlapping atoms calculated
 number of electron     896.0000000 magnetization 
 keeping initial charge density in first step


--------------------------------------------------------------------------------------------------------


 Maximum index for non-local projection operator          576
 Maximum index for augmentation-charges          437 (set IRDMAX)


--------------------------------------------------------------------------------------------------------


 First call to EWALD:  gamma=   0.146
 Maximum number of real-space cells 3x 3x 3
 Maximum number of reciprocal cells 3x 3x 3

 FEWALD executed in parallel
    FEWALD:  cpu time    0.0030: real time    0.0031


----------------------------------------- Iteration    1(   1)  ---------------------------------------


    POTLOK:  cpu time    0.0280: real time    0.0304
    SETDIJ:  cpu time    0.0180: real time    0.0233
     EDDAV:  cpu time   20.4569: real time   20.4869
       DOS:  cpu time    0.0010: real time    0.0023
    --------------------------------------------
      LOOP:  cpu time   20.5069: real time   20.5487

 eigenvalue-minimisations  :  5264
 total energy-change (2. order) : 0.1555602E+05  (-0.2849532E+05)
 number of electron     896.0000000 magnetization 
 augmentation part      896.0000000 magnetization 

 Free energy of the ion-electron system (eV)
  ---------------------------------------------------
  alpha Z        PSCENC =      4197.51614011
  Ewald energy   TEWEN  =    -80671.32131280
  -Hartree energ DENC   =    -51461.82628768
  -exchange      EXHF   =         0.00000000
  -V(xc)+E(xc)   XCENC  =      4058.45523307
  PAW double counting   =    118064.89290689  -146701.77456948
  entropy T*S    EENTRO =        -0.00133157
  eigenvalues    EBANDS =       -80.65739695
  atomic energy  EATOM  =    168150.74136308
  Solvation  Ediel_sol  =         0.00000000
  ---------------------------------------------------
  free energy    TOTEN  =     15556.02474467 eV

  energy without entropy =    15556.02607624  energy(sigma->0) =    15556.02541045


--------------------------------------------------------------------------------------------------------




----------------------------------------- Iteration    1(   2)  ---------------------------------------


     EDDAV:  cpu time   22.2296: real time   22.2255
       DOS:  cpu time    0.0020: real time    0.0013
    --------------------------------------------
      LOOP:  cpu time   22.2336: real time   22.2308

 eigenvalue-minimisations  :  4508
 total energy-change (2. order) :-0.1176665E+05  (-0.1064719E+05)
 number of electron     896.0000000 magnetization 
 augmentation part      896.0000000 magnetization 

 Free energy of the ion-electron system (eV)
  ---------------------------------------------------
  alpha Z        PSCENC =      4197.51614011
  Ewald energy   TEWEN  =    -80671.32131280
  -Hartree energ DENC   =    -51461.82628768
  -exchange      EXHF   =         0.00000000
  -V(xc)+E(xc)   XCENC  =      4058.45523307
  PAW double counting   =    118064.89290689  -146701.77456948
  entropy T*S    EENTRO =        -0.00242688
  eigenvalues    EBANDS =    -11847.30230323
  atomic energy  EATOM  =    168150.74136308
  Solvation  Ediel_sol  =         0.00000000
  ---------------------------------------------------
  free energy    TOTEN  =      3789.37874307 eV

  energy without entropy =     3789.38116995  energy(sigma->0) =     3789.37995651


--------------------------------------------------------------------------------------------------------




----------------------------------------- Iteration    1(   3)  ---------------------------------------


     EDDAV:  cpu time   19.7220: real time   19.7210
       DOS:  cpu time    0.0020: real time    0.0013
    --------------------------------------------
      LOOP:  cpu time   19.7260: real time   19.7251

 eigenvalue-minimisations  :  5012
 total energy-change (2. order) :-0.3392494E+04  (-0.3239349E+04)
 number of electron     896.0000000 magnetization 
 augmentation part      896.0000000 magnetization 

 Free energy of the ion-electron system (eV)
  ---------------------------------------------------
  alpha Z        PSCENC =      4197.51614011
  Ewald energy   TEWEN  =    -80671.32131280
  -Hartree energ DENC   =    -51461.82628768
  -exchange      EXHF   =         0.00000000
  -V(xc)+E(xc)   XCENC  =      4058.45523307
  PAW double counting   =    118064.89290689  -146701.77456948
  entropy T*S    EENTRO =        -0.00254998
  eigenvalues    EBANDS =    -15239.79591270
  atomic energy  EATOM  =    168150.74136308
  Solvation  Ediel_sol  =         0.00000000
  ---------------------------------------------------
  free energy    TOTEN  =       396.88501051 eV

  energy without entropy =      396.88756048  energy(sigma->0) =      396.88628549


--------------------------------------------------------------------------------------------------------




----------------------------------------- Iteration    1(   4)  ---------------------------------------


     EDDAV:  cpu time   20.8148: real time   20.8111
       DOS:  cpu time    0.0000: real time    0.0004
    --------------------------------------------
      LOOP:  cpu time   20.8168: real time   20.8145

 eigenvalue-minimisations  :  5362
 total energy-change (2. order) :-0.6207926E+03  (-0.5646542E+03)
 number of electron     896.0000000 magnetization 
 augmentation part      896.0000000 magnetization 

 Free energy of the ion-electron system (eV)
  ---------------------------------------------------
  alpha Z        PSCENC =      4197.51614011
  Ewald energy   TEWEN  =    -80671.32131280
  -Hartree energ DENC   =    -51461.82628768
  -exchange      EXHF   =         0.00000000
  -V(xc)+E(xc)   XCENC  =      4058.45523307
  PAW double counting   =    118064.89290689  -146701.77456948
  entropy T*S    EENTRO =        -0.00000000
  eigenvalues    EBANDS =    -15860.59105770
  atomic energy  EATOM  =    168150.74136308
  Solvation  Ediel_sol  =         0.00000000
  ---------------------------------------------------
  free energy    TOTEN  =      -223.90758452 eV

  energy without entropy =     -223.90758452  energy(sigma->0) =     -223.90758452


--------------------------------------------------------------------------------------------------------




----------------------------------------- Iteration    1(   5)  ---------------------------------------


     EDDAV:  cpu time   21.0248: real time   21.0249
       DOS:  cpu time    0.0020: real time    0.0012
    CHARGE:  cpu time    0.8489: real time    0.8534
    MIXING:  cpu time    0.0060: real time    0.0095
    --------------------------------------------
      LOOP:  cpu time   21.8837: real time   21.8923

 eigenvalue-minimisations  :  5418
 total energy-change (2. order) :-0.7251914E+02  (-0.7043718E+02)
 number of electron     895.9999776 magnetization 
 augmentation part      543.0562262 magnetization 

 Broyden mixing:
  rms(total) = 0.18409E+01    rms(broyden)= 0.18409E+01
  rms(prec ) = 0.20613E+01
  weight for this iteration     100.00

 Free energy of the ion-electron system (eV)
  ---------------------------------------------------
  alpha Z        PSCENC =      4197.51614011
  Ewald energy   TEWEN  =    -80671.32131280
  -Hartree energ DENC   =    -51461.82628768
  -exchange      EXHF   =         0.00000000
  -V(xc)+E(xc)   XCENC  =      4058.45523307
  PAW double counting   =    118064.89290689  -146701.77456948
  entropy T*S    EENTRO =        -0.00045310
  eigenvalues    EBANDS =    -15933.10974019
  atomic energy  EATOM  =    168150.74136308
  Solvation  Ediel_sol  =         0.00000000
  ---------------------------------------------------
  free energy    TOTEN  =      -296.42672011 eV

  energy without entropy =     -296.42626701  energy(sigma->0) =     -296.42649356


--------------------------------------------------------------------------------------------------------




----------------------------------------- Iteration    1(   6)  ---------------------------------------


    POTLOK:  cpu time    0.0240: real time    0.0247
    SETDIJ:  cpu time    0.0110: real time    0.0104
     EDDAV:  cpu time   21.5307: real time   21.5292
       DOS:  cpu time    0.0010: real time    0.0013
    CHARGE:  cpu time    0.8449: real time    0.8448
    MIXING:  cpu time    0.0050: real time    0.0054
    --------------------------------------------
      LOOP:  cpu time   22.4186: real time   22.4192

 eigenvalue-minimisations  :  5586
 total energy-change (2. order) : 0.7567762E+00  (-0.3611824E+01)
 number of electron     895.9999770 magnetization 
 augmentation part      543.2968666 magnetization 

 Broyden mixing:
  rms(total) = 0.81080E+00    rms(broyden)= 0.81080E+00
  rms(prec ) = 0.94484E+00
  weight for this iteration     100.00

 eigenvalues of (default mixing * dielectric matrix)
  average eigenvalue GAMMA=   1.6402
  1.6402

 Free energy of the ion-electron system (eV)
  ---------------------------------------------------
  alpha Z        PSCENC =      4197.51614011
  Ewald energy   TEWEN  =    -80671.32131280
  -Hartree energ DENC   =    -51392.32547684
  -exchange      EXHF   =         0.00000000
  -V(xc)+E(xc)   XCENC  =      4053.01550374
  PAW double counting   =    123900.30677649  -152533.38330448
  entropy T*S    EENTRO =        -0.00055924
  eigenvalues    EBANDS =    -16000.21907401
  atomic energy  EATOM  =    168150.74136308
  Solvation  Ediel_sol  =         0.00000000
  ---------------------------------------------------
  free energy    TOTEN  =      -295.66994396 eV

  energy without entropy =     -295.66938472  energy(sigma->0) =     -295.66966434


--------------------------------------------------------------------------------------------------------




----------------------------------------- Iteration    1(   7)  ---------------------------------------


    POTLOK:  cpu time    0.0250: real time    0.0246
    SETDIJ:  cpu time    0.0100: real time    0.0105
     EDDAV:  cpu time   22.3706: real time   22.3693
       DOS:  cpu time    0.0010: real time    0.0013
    CHARGE:  cpu time    0.8439: real time    0.8441
    MIXING:  cpu time    0.0030: real time    0.0033
    --------------------------------------------
      LOOP:  cpu time   23.2565: real time   23.2566

 eigenvalue-minimisations  :  5866
 total energy-change (2. order) : 0.7361752E+00  (-0.5960099E+00)
 number of electron     895.9999775 magnetization 
 augmentation part      543.2318076 magnetization 

 Broyden mixing:
  rms(total) = 0.22361E+00    rms(broyden)= 0.22361E+00
  rms(prec ) = 0.26315E+00
  weight for this iteration     100.00

 eigenvalues of (default mixing * dielectric matrix)
  average eigenvalue GAMMA=   1.5230
  1.0790  1.9670

 Free energy of the ion-electron system (eV)
  ---------------------------------------------------
  alpha Z        PSCENC =      4197.51614011
  Ewald energy   TEWEN  =    -80671.32131280
  -Hartree energ DENC   =    -51427.19130539
  -exchange      EXHF   =         0.00000000
  -V(xc)+E(xc)   XCENC  =      4052.15705212
  PAW double counting   =    128607.28418964  -157301.70458414
  entropy T*S    EENTRO =        -0.00057134
  eigenvalues    EBANDS =    -15902.41474001
  atomic energy  EATOM  =    168150.74136308
  Solvation  Ediel_sol  =         0.00000000
  ---------------------------------------------------
  free energy    TOTEN  =      -294.93376874 eV

  energy without entropy =     -294.93319741  energy(sigma->0) =     -294.93348308


--------------------------------------------------------------------------------------------------------




----------------------------------------- Iteration    1(   8)  ---------------------------------------


    POTLOK:  cpu time    0.0240: real time    0.0245
    SETDIJ:  cpu time    0.0100: real time    0.0105
     EDDAV:  cpu time   19.2681: real time   19.2652
       DOS:  cpu time    0.0010: real time    0.0012
    CHARGE:  cpu time    0.8469: real time    0.8454
    MIXING:  cpu time    0.0030: real time    0.0034
    --------------------------------------------
      LOOP:  cpu time   20.1569: real time   20.1537

 eigenvalue-minimisations  :  4865
 total energy-change (2. order) : 0.4111852E-01  (-0.3992242E-01)
 number of electron     895.9999776 magnetization 
 augmentation part      543.1734008 magnetization 

 Broyden mixing:
  rms(total) = 0.11174E+00    rms(broyden)= 0.11174E+00
  rms(prec ) = 0.12874E+00
  weight for this iteration     100.00

 eigenvalues of (default mixing * dielectric matrix)
  average eigenvalue GAMMA=   1.7221
  1.0602  1.5220  2.5842

 Free energy of the ion-electron system (eV)
  ---------------------------------------------------
  alpha Z        PSCENC =      4197.51614011
  Ewald energy   TEWEN  =    -80671.32131280
  -Hartree energ DENC   =    -51421.34250810
  -exchange      EXHF   =         0.00000000
  -V(xc)+E(xc)   XCENC  =      4051.51327995
  PAW double counting   =    129616.26938175  -158315.70438614
  entropy T*S    EENTRO =        -0.00057134
  eigenvalues    EBANDS =    -15902.56403672
  atomic energy  EATOM  =    168150.74136308
  Solvation  Ediel_sol  =         0.00000000
  ---------------------------------------------------
  free energy    TOTEN  =      -294.89265023 eV

  energy without entropy =     -294.89207888  energy(sigma->0) =     -294.89236456


--------------------------------------------------------------------------------------------------------




----------------------------------------- Iteration    1(   9)  ---------------------------------------


    POTLOK:  cpu time    0.0240: real time    0.0245
    SETDIJ:  cpu time    0.0100: real time    0.0105
     EDDAV:  cpu time   21.1118: real time   21.1230
       DOS:  cpu time    0.0020: real time    0.0013
    CHARGE:  cpu time    0.8449: real time    0.8465
    MIXING:  cpu time    0.0040: real time    0.0035
    --------------------------------------------
      LOOP:  cpu time   21.9987: real time   22.0128

 eigenvalue-minimisations  :  5460
 total energy-change (2. order) : 0.5408587E-02  (-0.6967082E-02)
 number of electron     895.9999775 magnetization 
 augmentation part      543.2064027 magnetization 

 Broyden mixing:
  rms(total) = 0.35668E-01    rms(broyden)= 0.35668E-01
  rms(prec ) = 0.37158E-01
  weight for this iteration     100.00

 eigenvalues of (default mixing * dielectric matrix)
  average eigenvalue GAMMA=   1.6453
  1.0642  1.0642  2.3572  2.0957

 Free energy of the ion-electron system (eV)
  ---------------------------------------------------
  alpha Z        PSCENC =      4197.51614011
  Ewald energy   TEWEN  =    -80671.32131280
  -Hartree energ DENC   =    -51414.06031356
  -exchange      EXHF   =         0.00000000
  -V(xc)+E(xc)   XCENC  =      4050.90881274
  PAW double counting   =    130359.83549088  -159059.43444354
  entropy T*S    EENTRO =        -0.00057134
  eigenvalues    EBANDS =    -15909.07240720
  atomic energy  EATOM  =    168150.74136308
  Solvation  Ediel_sol  =         0.00000000
  ---------------------------------------------------
  free energy    TOTEN  =      -294.88724164 eV

  energy without entropy =     -294.88667030  energy(sigma->0) =     -294.88695597


--------------------------------------------------------------------------------------------------------




----------------------------------------- Iteration    1(  10)  ---------------------------------------


    POTLOK:  cpu time    0.0250: real time    0.0246
    SETDIJ:  cpu time    0.0100: real time    0.0104
     EDDAV:  cpu time   20.1819: real time   20.1856
       DOS:  cpu time    0.0010: real time    0.0012
    CHARGE:  cpu time    0.8469: real time    0.8454
    MIXING:  cpu time    0.0040: real time    0.0038
    --------------------------------------------
      LOOP:  cpu time   21.0708: real time   21.0747

 eigenvalue-minimisations  :  5096
 total energy-change (2. order) :-0.7934365E-03  (-0.7902200E-03)
 number of electron     895.9999775 magnetization 
 augmentation part      543.1840294 magnetization 

 Broyden mixing:
  rms(total) = 0.10490E-01    rms(broyden)= 0.10490E-01
  rms(prec ) = 0.13596E-01
  weight for this iteration     100.00

 eigenvalues of (default mixing * dielectric matrix)
  average eigenvalue GAMMA=   1.7042
  2.5532  2.5532  1.3867  1.0700  0.9581

 Free energy of the ion-electron system (eV)
  ---------------------------------------------------
  alpha Z        PSCENC =      4197.51614011
  Ewald energy   TEWEN  =    -80671.32131280
  -Hartree energ DENC   =    -51417.75307256
  -exchange      EXHF   =         0.00000000
  -V(xc)+E(xc)   XCENC  =      4051.09438757
  PAW double counting   =    130165.43785023  -158867.08949274
  entropy T*S    EENTRO =        -0.00057134
  eigenvalues    EBANDS =    -15903.51332661
  atomic energy  EATOM  =    168150.74136308
  Solvation  Ediel_sol  =         0.00000000
  ---------------------------------------------------
  free energy    TOTEN  =      -294.88803508 eV

  energy without entropy =     -294.88746373  energy(sigma->0) =     -294.88774940


--------------------------------------------------------------------------------------------------------




----------------------------------------- Iteration    1(  11)  ---------------------------------------


    POTLOK:  cpu time    0.0240: real time    0.0246
    SETDIJ:  cpu time    0.0110: real time    0.0106
     EDDAV:  cpu time   21.8907: real time   21.8922
       DOS:  cpu time    0.0020: real time    0.0013
    CHARGE:  cpu time    0.8639: real time    0.8642
    MIXING:  cpu time    0.0040: real time    0.0040
    --------------------------------------------
      LOOP:  cpu time   22.7975: real time   22.8003

 eigenvalue-minimisations  :  5712
 total energy-change (2. order) : 0.9372807E-04  (-0.1492591E-03)
 number of electron     895.9999775 magnetization 
 augmentation part      543.1908865 magnetization 

 Broyden mixing:
  rms(total) = 0.42363E-02    rms(broyden)= 0.42363E-02
  rms(prec ) = 0.45461E-02
  weight for this iteration     100.00

 eigenvalues of (default mixing * dielectric matrix)
  average eigenvalue GAMMA=   1.5959
  2.7079  1.8942  1.8942  0.8694  1.1050  1.1050

 Free energy of the ion-electron system (eV)
  ---------------------------------------------------
  alpha Z        PSCENC =      4197.51614011
  Ewald energy   TEWEN  =    -80671.32131280
  -Hartree energ DENC   =    -51420.84215937
  -exchange      EXHF   =         0.00000000
  -V(xc)+E(xc)   XCENC  =      4051.19611743
  PAW double counting   =    130135.91916184  -158838.21851122
  entropy T*S    EENTRO =        -0.00057134
  eigenvalues    EBANDS =    -15899.87816907
  atomic energy  EATOM  =    168150.74136308
  Solvation  Ediel_sol  =         0.00000000
  ---------------------------------------------------
  free energy    TOTEN  =      -294.88794135 eV

  energy without entropy =     -294.88737001  energy(sigma->0) =     -294.88765568


--------------------------------------------------------------------------------------------------------




----------------------------------------- Iteration    1(  12)  ---------------------------------------


    POTLOK:  cpu time    0.0250: real time    0.0246
    SETDIJ:  cpu time    0.0100: real time    0.0107
     EDDAV:  cpu time   21.6667: real time   21.6701
       DOS:  cpu time    0.0010: real time    0.0012
    CHARGE:  cpu time    0.8459: real time    0.8465
    MIXING:  cpu time    0.0050: real time    0.0040
    --------------------------------------------
      LOOP:  cpu time   22.5566: real time   22.5607

 eigenvalue-minimisations  :  5642
 total energy-change (2. order) : 0.4049187E-05  (-0.3011050E-04)
 number of electron     895.9999775 magnetization 
 augmentation part      543.1935072 magnetization 

 Broyden mixing:
  rms(total) = 0.15912E-02    rms(broyden)= 0.15912E-02
  rms(prec ) = 0.18091E-02
  weight for this iteration     100.00

 eigenvalues of (default mixing * dielectric matrix)
  average eigenvalue GAMMA=   1.6426
  2.3555  2.3555  2.3286  1.2724  1.2724  0.9568  0.9568

 Free energy of the ion-electron system (eV)
  ---------------------------------------------------
  alpha Z        PSCENC =      4197.51614011
  Ewald energy   TEWEN  =    -80671.32131280
  -Hartree energ DENC   =    -51420.77172664
  -exchange      EXHF   =         0.00000000
  -V(xc)+E(xc)   XCENC  =      4051.18324925
  PAW double counting   =    130161.75531134  -158863.62083408
  entropy T*S    EENTRO =        -0.00057134
  eigenvalues    EBANDS =    -15900.36955621
  atomic energy  EATOM  =    168150.74136308
  Solvation  Ediel_sol  =         0.00000000
  ---------------------------------------------------
  free energy    TOTEN  =      -294.88793730 eV

  energy without entropy =     -294.88736596  energy(sigma->0) =     -294.88765163


--------------------------------------------------------------------------------------------------------




----------------------------------------- Iteration    1(  13)  ---------------------------------------


    POTLOK:  cpu time    0.0240: real time    0.0246
    SETDIJ:  cpu time    0.0110: real time    0.0105
     EDDAV:  cpu time   23.1005: real time   23.1066
       DOS:  cpu time    0.0010: real time    0.0012
    CHARGE:  cpu time    0.8439: real time    0.8444
    MIXING:  cpu time    0.0050: real time    0.0042
    --------------------------------------------
      LOOP:  cpu time   23.9874: real time   24.0271

 eigenvalue-minimisations  :  6090
 total energy-change (2. order) :-0.6195711E-05  (-0.2488486E-05)
 number of electron     895.9999775 magnetization 
 augmentation part      543.1944866 magnetization 

 Broyden mixing:
  rms(total) = 0.40203E-03    rms(broyden)= 0.40203E-03
  rms(prec ) = 0.52691E-03
  weight for this iteration     100.00

 eigenvalues of (default mixing * dielectric matrix)
  average eigenvalue GAMMA=   1.6503
  2.9879  2.5686  1.7952  1.6160  1.2836  1.0669  0.9776  0.9063

 Free energy of the ion-electron system (eV)
  ---------------------------------------------------
  alpha Z        PSCENC =      4197.51614011
  Ewald energy   TEWEN  =    -80671.32131280
  -Hartree energ DENC   =    -51420.97942595
  -exchange      EXHF   =         0.00000000
  -V(xc)+E(xc)   XCENC  =      4051.18922873
  PAW double counting   =    130157.94976321  -158859.45479317
  entropy T*S    EENTRO =        -0.00057134
  eigenvalues    EBANDS =    -15900.52833535
  atomic energy  EATOM  =    168150.74136308
  Solvation  Ediel_sol  =         0.00000000
  ---------------------------------------------------
  free energy    TOTEN  =      -294.88794349 eV

  energy without entropy =     -294.88737215  energy(sigma->0) =     -294.88765782


--------------------------------------------------------------------------------------------------------




----------------------------------------- Iteration    1(  14)  ---------------------------------------


    POTLOK:  cpu time    0.0240: real time    0.0244
    SETDIJ:  cpu time    0.0110: real time    0.0107
     EDDAV:  cpu time   14.8777: real time   14.8791
       DOS:  cpu time    0.0010: real time    0.0013
    --------------------------------------------
      LOOP:  cpu time   14.9157: real time   14.9187

 eigenvalue-minimisations  :  3402
 total energy-change (2. order) :-0.3167952E-06  (-0.2276355E-06)
 number of electron     895.9999775 magnetization 
 augmentation part      543.1944866 magnetization 

 Free energy of the ion-electron system (eV)
  ---------------------------------------------------
  alpha Z        PSCENC =      4197.51614011
  Ewald energy   TEWEN  =    -80671.32131280
  -Hartree energ DENC   =    -51421.06592832
  -exchange      EXHF   =         0.00000000
  -V(xc)+E(xc)   XCENC  =      4051.19182686
  PAW double counting   =    130157.73188200  -158859.26538932
  entropy T*S    EENTRO =        -0.00057134
  eigenvalues    EBANDS =    -15900.41595406
  atomic energy  EATOM  =    168150.74136308
  Solvation  Ediel_sol  =         0.00000000
  ---------------------------------------------------
  free energy    TOTEN  =      -294.88794381 eV

  energy without entropy =     -294.88737247  energy(sigma->0) =     -294.88765814


--------------------------------------------------------------------------------------------------------




 average (electrostatic) potential at core
  the test charge radii are     1.0314  0.9962
  (the norm of the test charge is              1.0000)
       1 -69.7307       2 -69.7307       3 -69.7307       4 -69.7307       5 -69.7307
       6 -69.7307       7 -69.7307       8 -69.7307       9 -69.7307      10 -69.7307
      11 -69.7307      12 -69.7307      13 -69.7307      14 -69.7307      15 -69.7307
      16 -69.7307      17 -69.7307      18 -69.7307      19 -69.7307      20 -69.7307
      21 -69.7307      22 -69.7307      23 -69.7307      24 -69.7307      25 -69.7307
      26 -69.7307      27 -69.7307      28 -69.7307      29 -69.7307      30 -69.7307
      31 -69.7307      32 -69.7307      33 -41.1824      34 -41.1824      35 -41.1824
      36 -41.1824      37 -41.1824      38 -41.1824      39 -41.1824      40 -41.1824
      41 -41.1824      42 -41.1824      43 -41.1824      44 -41.1824      45 -41.1824
      46 -41.1824      47 -41.1824      48 -41.1824      49 -41.1824      50 -41.1824
      51 -41.1824      52 -41.1824      53 -41.1824      54 -41.1824      55 -41.1824
      56 -41.1824      57 -41.1824      58 -41.1824      59 -41.1824      60 -41.1824
      61 -41.1824      62 -41.1824      63 -41.1824      64 -41.1824
 
 
 
 E-fermi :   1.3972     XC(G=0):  -9.3643     alpha+bet : -7.3127


 k-point     1 :       0.0000    0.0000    0.0000
  band No.  band energies     occupation 
      1     -33.7709      2.00000
      2     -33.7709      2.00000
      3     -33.7709      2.00000
      4     -33.7707      2.00000
      5     -33.7707      2.00000
      6     -33.7707      2.00000
      7     -33.7707      2.00000
      8     -33.7707      2.00000
      9     -33.7707      2.00000
     10     -33.7706      2.00000
     11     -33.7706      2.00000
     12     -33.7706      2.00000
     13     -33.7705      2.00000
     14     -33.7705      2.00000
     15     -33.7705      2.00000
     16     -33.7705      2.00000
     17     -33.7705      2.00000
     18     -33.7705      2.00000
     19     -33.7705      2.00000
     20     -33.7705      2.00000
     21     -33.7705      2.00000
     22     -33.7705      2.00000
     23     -33.7705      2.00000
     24     -33.7705      2.00000
     25     -33.7705      2.00000
     26     -33.7704      2.00000
     27     -33.7704      2.00000
     28     -33.7704      2.00000
     29     -33.7704      2.00000
     30     -33.7704      2.00000
     31     -33.7704      2.00000
     32     -33.7704      2.00000
     33     -33.7704      2.00000
     34     -33.7704      2.00000
     35     -33.7703      2.00000
     36     -33.7703      2.00000
     37     -33.7703      2.00000
     38     -33.7703      2.00000
     39     -33.7703      2.00000
     40     -33.7703      2.00000
     41     -33.7703      2.00000
     42     -33.7703      2.00000
     43     -33.7703      2.00000
     44     -33.7703      2.00000
     45     -33.7703      2.00000
     46     -33.7703      2.00000
     47     -33.7703      2.00000
     48     -33.7703      2.00000
     49     -33.7703      2.00000
     50     -33.7703      2.00000
     51     -33.7703      2.00000
     52     -33.7703      2.00000
     53     -33.7703      2.00000
     54     -33.7703      2.00000
     55     -33.7703      2.00000
     56     -33.7702      2.00000
     57     -33.7702      2.00000
     58     -33.7702      2.00000
     59     -33.7702      2.00000
     60     -33.7702      2.00000
     61     -33.7702      2.00000
     62     -33.7702      2.00000
     63     -33.7702      2.00000
     64     -33.7702      2.00000
     65     -33.7702      2.00000
     66     -33.7702      2.00000
     67     -33.7702      2.00000
     68     -33.7702      2.00000
     69     -33.7702      2.00000
     70     -33.7702      2.00000
     71     -33.7702      2.00000
     72     -33.7702      2.00000
     73     -33.7702      2.00000
     74     -33.7702      2.00000
     75     -33.7702      2.00000
     76     -33.7702      2.00000
     77     -33.7702      2.00000
     78     -33.7702      2.00000
     79     -33.7702      2.00000
     80     -33.7702      2.00000
     81     -33.7702      2.00000
     82     -33.7702      2.00000
     83     -33.7702      2.00000
     84     -33.7702      2.00000
     85     -33.7699      2.00000
     86     -33.7699      2.00000
     87     -33.7699      2.00000
     88     -33.7699      2.00000
     89     -33.7699      2.00000
     90     -33.7699      2.00000
     91     -33.7699      2.00000
     92     -33.7699      2.00000
     93     -33.7699      2.00000
     94     -33.7699      2.00000
     95     -33.7699      2.00000
     96     -33.7699      2.00000
     97     -33.7659      2.00000
     98     -33.7659      2.00000
     99     -33.7659      2.00000
    100     -33.7658      2.00000
    101     -33.7658      2.00000
    102     -33.7658      2.00000
    103     -33.7658      2.00000
    104     -33.7658      2.00000
    105     -33.7658      2.00000
    106     -33.7657      2.00000
    107     -33.7657      2.00000
    108     -33.7657      2.00000
    109     -33.7657      2.00000
    110     -33.7657      2.00000
    111     -33.7657      2.00000
    112     -33.7657      2.00000
    113     -33.7657      2.00000
    114     -33.7656      2.00000
    115     -33.7656      2.00000
    116     -33.7656      2.00000
    117     -33.7656      2.00000
    118     -33.7656      2.00000
    119     -33.7656      2.00000
    120     -33.7656      2.00000
    121     -33.7656      2.00000
    122     -33.7656      2.00000
    123     -33.7656      2.00000
    124     -33.7656      2.00000
    125     -33.7656      2.00000
    126     -33.7656      2.00000
    127     -33.7656      2.00000
    128     -33.7656      2.00000
    129     -33.7656      2.00000
    130     -33.7656      2.00000
    131     -33.7656      2.00000
    132     -33.7656      2.00000
    133     -33.7656      2.00000
    134     -33.7656      2.00000
    135     -33.7656      2.00000
    136     -33.7656      2.00000
    137     -33.7656      2.00000
    138     -33.7656      2.00000
    139     -33.7656      2.00000
    140     -33.7656      2.00000
    141     -33.7656      2.00000
    142     -33.7656      2.00000
    143     -33.7656      2.00000
    144     -33.7656      2.00000
    145     -33.7656      2.00000
    146     -33.7655      2.00000
    147     -33.7655      2.00000
    148     -33.7655      2.00000
    149     -33.7655      2.00000
    150     -33.7655      2.00000
    151     -33.7655      2.00000
    152     -33.7655      2.00000
    153     -33.7655      2.00000
    154     -33.7655      2.00000
    155     -33.7655      2.00000
    156     -33.7655      2.00000
    157     -33.7655      2.00000
    158     -33.7653      2.00000
    159     -33.7653      2.00000
    160     -33.7653      2.00000
    161     -13.3226      2.00000
    162     -13.3226      2.00000
    163     -13.3226      2.00000
    164     -13.3153      2.00000
    165     -13.3153      2.00000
    166     -13.3153      2.00000
    167     -13.3153      2.00000
    168     -13.3153      2.00000
    169     -13.3153      2.00000
    170     -13.3042      2.00000
    171     -13.3042      2.00000
    172     -13.3042      2.00000
    173     -13.3041      2.00000
    174     -13.3038      2.00000
    175     -13.3038      2.00000
    176     -13.3038      2.00000
    177     -13.3038      2.00000
    178     -13.3038      2.00000
    179     -13.3038      2.00000
    180     -13.3038      2.00000
    181     -13.3038      2.00000
    182     -13.3038      2.00000
    183     -13.3038      2.00000
    184     -13.3038      2.00000
    185     -13.3038      2.00000
    186     -13.2990      2.00000
    187     -13.2990      2.00000
    188     -13.2990      2.00000
    189     -13.2990      2.00000
    190     -13.2990      2.00000
    191     -13.2990      2.00000
    192     -13.2722      2.00000
    193     -13.2722      2.00000
    194     -13.2722      2.00000
    195     -13.2627      2.00000
    196     -13.2627      2.00000
    197     -13.2627      2.00000
    198     -13.2627      2.00000
    199     -13.2627      2.00000
    200     -13.2627      2.00000
    201     -13.2627      2.00000
    202     -13.2627      2.00000
    203     -13.2609      2.00000
    204     -13.2609      2.00000
    205     -13.2609      2.00000
    206     -13.2609      2.00000
    207     -13.2609      2.00000
    208     -13.2609      2.00000
    209     -13.2609      2.00000
    210     -13.2609      2.00000
    211     -13.2609      2.00000
    212     -13.2609      2.00000
    213     -13.2609      2.00000
    214     -13.2609      2.00000
    215     -13.2608      2.00000
    216     -13.2608      2.00000
    217     -13.2608      2.00000
    218     -13.2608      2.00000
    219     -13.2608      2.00000
    220     -13.2608      2.00000
    221     -13.2608      2.00000
    222     -13.2608      2.00000
    223     -13.2608      2.00000
    224     -13.2608      2.00000
    225     -13.2608      2.00000
    226     -13.2608      2.00000
    227     -13.2603      2.00000
    228     -13.2603      2.00000
    229     -13.2603      2.00000
    230     -13.2603      2.00000
    231     -13.2603      2.00000
    232     -13.2603      2.00000
    233     -13.2603      2.00000
    234     -13.2603      2.00000
    235     -13.2603      2.00000
    236     -13.2603      2.00000
    237     -13.2603      2.00000
    238     -13.2603      2.00000
    239     -13.2578      2.00000
    240     -13.2578      2.00000
    241     -13.2578      2.00000
    242     -13.2578      2.00000
    243     -13.2578      2.00000
    244     -13.2578      2.00000
    245     -13.2504      2.00000
    246     -13.2504      2.00000
    247     -13.2504      2.00000
    248     -13.2504      2.00000
    249     -13.2504      2.00000
    250     -13.2504      2.00000
    251     -13.2490      2.00000
    252     -13.2490      2.00000
    253     -13.2490      2.00000
    254     -13.2490      2.00000
    255     -13.2490      2.00000
    256     -13.2490      2.00000
    257     -13.2422      2.00000
    258     -13.2422      2.00000
    259     -13.2422      2.00000
    260     -13.2366      2.00000
    261     -13.2366      2.00000
    262     -13.2366      2.00000
    263     -13.2366      2.00000
    264     -13.2366      2.00000
    265     -13.2366      2.00000
    266     -13.2366      2.00000
    267     -13.2366      2.00000
    268     -13.2366      2.00000
    269     -13.2365      2.00000
    270     -13.2365      2.00000
    271     -13.2365      2.00000
    272     -13.2325      2.00000
    273     -13.2325      2.00000
    274     -13.2325      2.00000
    275     -13.2324      2.00000
    276     -13.2324      2.00000
    277     -13.2324      2.00000
    278     -13.2324      2.00000
    279     -13.2324      2.00000
    280     -13.2324      2.00000
    281     -13.2324      2.00000
    282     -13.2324      2.00000
    283     -13.2324      2.00000
    284     -13.2318      2.00000
    285     -13.2318      2.00000
    286     -13.2315      2.00000
    287     -13.2315      2.00000
    288     -13.2315      2.00000
    289     -13.2315      2.00000
    290     -13.2315      2.00000
    291     -13.2315      2.00000
    292     -13.2314      2.00000
    293     -13.2314      2.00000
    294     -13.2314      2.00000
    295     -13.2314      2.00000
    296     -13.2314      2.00000
    297     -13.2314      2.00000
    298     -13.2301      2.00000
    299     -13.2301      2.00000
    300     -13.2301      2.00000
    301     -13.2300      2.00000
    302     -13.2300      2.00000
    303     -13.2300      2.00000
    304     -13.2300      2.00000
    305     -13.2300      2.00000
    306     -13.2296      2.00000
    307     -13.2296      2.00000
    308     -13.2296      2.00000
    309     -13.2295      2.00000
    310     -13.2295      2.00000
    311     -13.2295      2.00000
    312     -13.2288      2.00000
    313     -13.2288      2.00000
    314     -13.2288      2.00000
    315     -13.2288      2.00000
    316     -13.2288      2.00000
    317     -13.2288      2.00000
    318     -13.2258      2.00000
    319     -13.2257      2.00000
    320     -13.2257      2.00000
    321     -10.0996      2.00000
    322      -9.4275      2.00000
    323      -9.4275      2.00000
    324      -9.4275      2.00000
    325      -9.4275      2.00000
    326      -9.4275      2.00000
    327      -9.4275      2.00000
    328      -8.9504      2.00000
    329      -8.9504      2.00000
    330      -8.9504      2.00000
    331      -8.9504      2.00000
    332      -8.9504      2.00000
    333      -8.9504      2.00000
    334      -8.9504      2.00000
    335      -8.9504      2.00000
    336      -8.9504      2.00000
    337      -8.9504      2.00000
    338      -8.9504      2.00000
    339      -8.9504      2.00000
    340      -8.8943      2.00000
    341      -8.8943      2.00000
    342      -8.8943      2.00000
    343      -8.8942      2.00000
    344      -8.4020      2.00000
    345      -8.4020      2.00000
    346      -8.4020      2.00000
    347      -8.3779      2.00000
    348      -8.3779      2.00000
    349      -8.3779      2.00000
    350      -8.3779      2.00000
    351      -8.3779      2.00000
    352      -8.3779      2.00000
    353      -4.6401      2.00000
    354      -4.6401      2.00000
    355      -4.6401      2.00000
    356      -4.5239      2.00000
    357      -4.5239      2.00000
    358      -4.5239      2.00000
    359      -4.5239      2.00000
    360      -4.5239      2.00000
    361      -4.5239      2.00000
    362      -4.3528      2.00000
    363      -4.3528      2.00000
    364      -4.3528      2.00000
    365      -4.3528      2.00000
    366      -3.7839      2.00000
    367      -3.7839      2.00000
    368      -3.7839      2.00000
    369      -3.7839      2.00000
    370      -3.7839      2.00000
    371      -3.7839      2.00000
    372      -3.7839      2.00000
    373      -3.7839      2.00000
    374      -3.7839      2.00000
    375      -3.7839      2.00000
    376      -3.7839      2.00000
    377      -3.7839      2.00000
    378      -2.6843      2.00000
    379      -2.6843      2.00000
    380      -2.6843      2.00000
    381      -2.6842      2.00000
    382      -2.6842      2.00000
    383      -2.6842      2.00000
    384      -1.3111      2.00000
    385      -1.3111      2.00000
    386      -1.3111      2.00000
    387      -1.3111      2.00000
    388      -1.3111      2.00000
    389      -1.3111      2.00000
    390      -1.1955      2.00000
    391      -1.1955      2.00000
    392      -1.1955      2.00000
    393      -1.1955      2.00000
    394      -1.1955      2.00000
    395      -1.1955      2.00000
    396      -1.1955      2.00000
    397      -1.1955      2.00000
    398      -1.1955      2.00000
    399      -1.1954      2.00000
    400      -1.1954      2.00000
    401      -1.1954      2.00000
    402      -1.1312      2.00000
    403      -1.1312      2.00000
    404      -1.1312      2.00000
    405      -1.1312      2.00000
    406      -1.1312      2.00000
    407      -1.1312      2.00000
    408      -0.6569      2.00000
    409      -0.6569      2.00000
    410      -0.6569      2.00000
    411      -0.6569      2.00000
    412      -0.6569      2.00000
    413      -0.6569      2.00000
    414       0.1247      2.00000
    415       0.1247      2.00000
    416       0.1247      2.00000
    417       0.1247      2.00000
    418       0.1247      2.00000
    419       0.1247      2.00000
    420       0.1247      2.00000
    421       0.1247      2.00000
    422       0.1247      2.00000
    423       0.1247      2.00000
    424       0.1247      2.00000
    425       0.1247      2.00000
    426       0.3252      2.00000
    427       0.4704      2.00000
    428       0.4704      2.00000
    429       0.4704      2.00000
    430       0.4704      2.00000
    431       0.4704      2.00000
    432       0.4704      2.00000
    433       0.4705      2.00000
    434       0.4705      2.00000
    435       0.4705      2.00000
    436       0.4705      2.00000
    437       0.4705      2.00000
    438       0.4705      2.00000
    439       0.5232      2.00000
    440       0.5232      2.00000
    441       0.5232      2.00000
    442       0.5232      2.00000
    443       0.5232      2.00000
    444       0.5232      2.00000
    445       0.5232      2.00000
    446       0.5232      2.00000
    447       1.3941      1.33333
    448       1.3941      1.33333
    449       1.3941      1.33333
    450       1.7555      0.00000
    451       1.7556      0.00000
    452       1.7556      0.00000
    453       1.7556      0.00000
    454       2.9525      0.00000
    455       2.9525      0.00000
    456       2.9526      0.00000
    457       3.0476      0.00000
    458       3.0476      0.00000
    459       3.0476      0.00000
    460       3.2650      0.00000
    461       3.2650      0.00000
    462       3.2650      0.00000
    463       3.2650      0.00000
    464       3.2650      0.00000
    465       3.2650      0.00000
    466       3.4838      0.00000
    467       3.4838      0.00000
    468       3.4838      0.00000
    469       3.4838      0.00000
    470       3.4838      0.00000
    471       3.4838      0.00000
    472       3.4838      0.00000
    473       3.4838      0.00000
    474       3.4838      0.00000
    475       3.4838      0.00000
    476       3.4838      0.00000
    477       3.4838      0.00000
    478       3.9930      0.00000
    479       3.9930      0.00000
    480       3.9930      0.00000
    481       3.9930      0.00000
    482       3.9930      0.00000
    483       3.9930      0.00000
    484       4.9804      0.00000
    485       4.9804      0.00000
    486       4.9804      0.00000
    487       4.9811      0.00000
    488       4.9811      0.00000
    489       4.9811      0.00000
    490       4.9811      0.00000
    491       4.9811      0.00000
    492       4.9811      0.00000
    493       5.8474      0.00000
    494       5.8474      0.00000
    495       5.8474      0.00000
    496       5.8474      0.00000
    497       5.8474      0.00000
    498       5.8474      0.00000
    499       5.8474      0.00000
    500       5.8475      0.00000
    501       5.8695      0.00000
    502       5.8695      0.00000
    503       5.8695      0.00000
    504       5.8695      0.00000
    505       5.8695      0.00000
    506       5.8695      0.00000
    507       6.0320      0.00000
    508       6.0321      0.00000
    509       6.0323      0.00000
    510       6.0325      0.00000
    511       6.0327      0.00000
    512       6.0331      0.00000
    513       6.3403      0.00000
    514       6.3404      0.00000
    515       6.3404      0.00000
    516       6.3409      0.00000
    517       6.3420      0.00000
    518       6.3425      0.00000
    519       6.3442      0.00000
    520       6.3471      0.00000
    521       6.3502      0.00000
    522       6.3518      0.00000
    523       6.3617      0.00000
[...]
 -0.000  -0.000   0.000  -0.000   0.002   0.000   0.000   0.000  -0.000   0.007  -0.000  -0.000  -0.000   0.000  -0.000   0.000
  0.000  -0.000   0.000  -0.000   0.000  -0.000  -0.000  -0.000   0.000  -0.000   1.525   0.016   0.000  -0.000  -0.000  -0.000
 -0.000  -0.000   0.000   0.000   0.000   0.000   0.000   0.000  -0.000  -0.000   0.016   0.001  -0.000   0.000  -0.000  -0.000
  0.000   0.000  -0.000   0.009  -0.000   0.000   0.000   0.000   0.104   0.000   0.000   0.000   0.718  -0.000   0.000   0.010
  0.009  -0.000   0.000  -0.000   0.000   0.104  -0.000  -0.000  -0.000   0.000  -0.000   0.000  -0.000   0.718   0.000  -0.000
  0.000   0.009   0.000   0.000   0.000  -0.000   0.104  -0.000  -0.000   0.000  -0.000  -0.000   0.000  -0.000   0.718  -0.000
 -0.000  -0.000  -0.000   0.001   0.000   0.000   0.000   0.000   0.001  -0.000  -0.000  -0.000   0.010   0.000  -0.000   0.000
  0.001   0.000  -0.000   0.000  -0.000   0.001   0.000  -0.000  -0.000  -0.000  -0.000   0.000  -0.000   0.010  -0.000   0.000
 -0.000   0.001   0.000  -0.000  -0.000   0.000   0.001   0.000  -0.000  -0.000  -0.000  -0.000   0.000   0.000   0.010   0.000


------------------------ aborting loop because EDIFF is reached ----------------------------------------


    CHARGE:  cpu time    0.9479: real time    0.9479
    FORLOC:  cpu time    0.0340: real time    0.0349
    FORNL :  cpu time    3.0095: real time    3.0115
    STRESS:  cpu time    8.9386: real time    8.9413
    FORCOR:  cpu time    0.0560: real time    0.0589
    FORHAR:  cpu time    0.0520: real time    0.0528
    MIXING:  cpu time    0.0050: real time    0.0050
    OFIELD:  cpu time    0.0010: real time    0.0015

  FORCE on cell =-STRESS in cart. coord.  units (eV):
  Direction    XX          YY          ZZ          XY          YZ          ZX
  --------------------------------------------------------------------------------------
  Alpha Z  4197.51614  4197.51614  4197.51614
  Ewald  -26890.60877-26890.60877-26890.60877    -0.00000     0.00000    -0.00000
  Hartree 17140.36749 17140.36749 17140.36749    -0.00000    -0.00000    -0.00000
  E(xc)   -5194.31279 -5194.31279 -5194.31279     0.00000     0.00000    -0.00000
  Local    2886.86855  2886.86855  2886.86855     0.00000    -0.00000     0.00000
  n-local   554.92771   558.41199   555.80576    -3.87179    -1.58926    -1.58925
  augment  2949.93198  2949.93198  2949.93198     0.00000    -0.00000     0.00000
  Kinetic  4240.64455  4250.13868  4242.39730    -9.52857    -4.07252    -4.07252
  Fock        0.00000     0.00000     0.00000     0.00000     0.00000     0.00000
  -------------------------------------------------------------------------------------
  Total    -109.46206  -109.46206  -109.46206     0.00000     0.00000     0.00000
  in kB     -98.87881   -98.87881   -98.87881     0.00000     0.00000     0.00000
  external pressure =      -98.88 kB  Pullay stress =        0.00 kB


 VOLUME and BASIS-vectors are now :
 -----------------------------------------------------------------------------
  energy-cutoff  :      500.00
  volume of cell :     1773.66
      direct lattice vectors                 reciprocal lattice vectors
    12.104782617  0.000000000  0.000000000     0.082611975  0.000000000  0.000000000
     0.000000000 12.104782617  0.000000000     0.000000000  0.082611975  0.000000000
     0.000000000  0.000000000 12.104782617     0.000000000  0.000000000  0.082611975

  length of vectors
    12.104782617 12.104782617 12.104782617     0.082611975  0.082611975  0.082611975


 FORCES acting on ions
    electron-ion (+dipol)            ewald-force                    non-local-force                 convergence-correction
 -----------------------------------------------------------------------------------------------
   0.176E-14 -.547E-13 -.183E-12   0.711E-13 0.728E-13 0.213E-13   0.121E-16 -.827E-17 0.813E-19   -.180E-13 -.112E-11 -.107E-11
   0.198E-11 -.289E-14 0.846E-11   0.142E-13 -.128E-12 0.497E-13   0.661E-17 0.729E-17 0.109E-16   0.148E-12 -.175E-12 -.437E-12
   0.411E-14 0.961E-12 0.648E-12   0.817E-13 -.604E-13 0.231E-12   0.884E-17 -.160E-16 0.745E-17   0.780E-12 0.277E-12 -.143E-11
   0.199E-11 -.107E-10 -.393E-11   0.533E-13 -.462E-13 0.320E-13   -.889E-17 0.156E-16 0.104E-16   -.425E-12 0.113E-11 -.105E-11
   0.129E-11 -.605E-13 0.445E-11   -.568E-13 0.000E+00 0.853E-13   0.299E-16 -.922E-17 -.604E-17   -.583E-12 -.392E-12 0.189E-12
   0.313E-11 0.199E-13 0.671E-11   0.000E+00 -.124E-12 -.711E-13   -.472E-17 -.129E-16 0.230E-17   0.907E-12 -.650E-12 0.991E-15
   0.998E-12 0.353E-11 0.311E-11   -.853E-13 -.107E-12 0.320E-13   -.992E-17 -.137E-16 0.162E-16   0.612E-12 -.946E-13 0.139E-11
   0.299E-11 0.194E-11 -.103E-11   0.711E-13 0.178E-13 0.764E-13   0.149E-16 -.154E-16 0.257E-17   -.302E-12 -.106E-13 0.224E-11
   0.107E-11 0.219E-11 0.224E-11   -.906E-13 0.000E+00 0.355E-14   0.889E-17 -.152E-16 0.169E-16   0.974E-12 0.102E-11 -.103E-11
   0.306E-11 -.367E-11 0.972E-11   -.105E-12 -.728E-13 -.693E-13   -.759E-18 0.167E-16 0.218E-16   -.701E-12 0.199E-11 -.137E-11
   0.994E-12 0.943E-11 -.586E-12   -.462E-13 -.391E-13 0.426E-13   -.266E-17 0.186E-16 0.175E-16   -.602E-12 -.364E-12 0.511E-13
   0.299E-11 -.600E-11 0.129E-11   0.000E+00 0.444E-13 -.817E-13   0.182E-16 -.596E-17 -.136E-16   0.110E-11 -.937E-12 0.338E-13
   0.229E-12 0.327E-11 0.764E-12   -.568E-13 -.462E-13 -.178E-13   0.352E-17 0.193E-16 0.194E-16   -.438E-12 -.308E-12 -.104E-11
   0.214E-11 -.353E-11 -.167E-12   -.888E-13 -.604E-13 -.568E-13   0.118E-16 -.813E-17 0.894E-17   0.621E-12 -.118E-11 -.205E-12
   0.792E-13 0.203E-11 0.207E-11   -.174E-12 -.114E-12 -.107E-13   0.180E-16 -.100E-16 -.862E-17   -.144E-12 0.151E-11 0.138E-11
   0.192E-11 -.248E-11 -.627E-11   -.320E-13 0.426E-13 0.533E-13   0.764E-17 -.153E-16 0.331E-16   0.524E-12 0.121E-11 0.887E-13
   0.100E-11 -.135E-11 0.357E-11   -.142E-12 0.142E-12 0.568E-13   0.336E-16 -.875E-17 0.128E-16   0.220E-12 0.450E-13 0.694E-12
   0.298E-11 -.321E-10 0.195E-10   -.114E-12 -.178E-13 0.121E-12   -.531E-17 -.613E-17 0.104E-16   0.282E-13 -.244E-12 0.527E-12
   0.996E-12 -.137E-12 -.284E-11   -.288E-12 0.711E-13 0.128E-12   -.591E-17 0.808E-17 0.946E-17   0.113E-12 -.993E-12 -.561E-12
   0.329E-11 0.785E-14 -.877E-11   -.188E-12 -.853E-13 0.203E-12   0.211E-16 -.122E-16 0.428E-17   0.135E-12 -.232E-11 -.597E-12
   -.704E-13 -.697E-13 0.187E-11   -.327E-12 0.462E-13 -.142E-13   -.113E-16 0.550E-17 0.226E-16   -.795E-13 -.165E-11 0.211E-11
   0.199E-11 -.764E-13 -.527E-11   -.284E-12 -.568E-13 0.568E-13   0.211E-16 -.613E-17 0.794E-17   0.203E-12 -.118E-11 0.129E-11
   0.993E-12 0.151E-11 -.690E-12   -.746E-13 -.711E-14 0.107E-12   0.119E-16 0.894E-18 0.716E-17   -.826E-13 0.477E-12 0.551E-12
   0.306E-11 0.662E-11 -.194E-10   -.462E-13 0.711E-14 0.409E-13   0.122E-16 -.531E-17 0.678E-18   0.618E-12 0.506E-12 0.622E-12
   0.810E-13 0.105E-11 0.312E-11   -.192E-12 -.391E-13 -.533E-14   0.786E-17 -.512E-17 0.965E-17   -.238E-12 -.385E-12 0.104E-11
   0.191E-11 -.187E-11 -.151E-11   -.220E-12 0.284E-13 0.107E-13   0.219E-16 -.390E-17 -.282E-17   0.419E-12 -.940E-14 0.550E-12
   0.646E-14 0.327E-11 0.308E-11   -.227E-12 0.391E-13 0.462E-13   0.201E-16 -.445E-17 -.613E-17   -.452E-12 0.257E-12 0.461E-12
   0.191E-11 0.368E-11 0.105E-10   -.284E-12 -.284E-13 0.000E+00   0.266E-17 -.290E-17 0.382E-17   0.524E-12 -.183E-12 -.626E-12
   0.153E-12 0.192E-11 -.157E-12   -.195E-12 -.355E-13 0.711E-13   0.857E-17 0.724E-17 0.120E-16   -.438E-12 0.104E-11 -.559E-12
   0.198E-11 -.314E-11 0.196E-11   -.167E-12 0.711E-14 -.284E-13   0.177E-16 -.191E-16 -.859E-17   0.588E-12 0.192E-12 0.503E-12
   0.990E-12 -.156E-11 0.937E-12   -.327E-12 -.568E-13 -.284E-13   0.304E-17 -.272E-16 -.165E-16   0.149E-12 0.339E-12 -.389E-12
   0.314E-11 -.205E-10 0.112E-11   -.298E-12 -.568E-13 0.178E-14   0.732E-17 0.434E-18 0.960E-17   0.919E-13 0.657E-12 -.139E-11
   0.304E-06 0.304E-06 0.305E-07   0.128E-12 0.426E-13 0.464E-13   -.373E-17 0.101E-17 0.312E-17   0.326E-12 0.438E-12 -.458E-12
   0.304E-06 0.304E-06 0.305E-07   0.853E-13 0.711E-13 0.199E-12   0.342E-17 0.105E-17 0.347E-17   -.117E-11 0.915E-12 0.126E-11
   0.304E-06 0.304E-06 0.306E-07   0.568E-13 0.163E-12 -.114E-12   -.240E-17 -.229E-17 0.573E-17   0.905E-12 -.743E-12 0.486E-12
   0.304E-06 0.304E-06 0.305E-07   0.853E-13 -.171E-12 0.284E-13   0.786E-17 0.163E-18 0.379E-17   -.169E-11 -.843E-12 0.807E-12
   0.304E-06 0.304E-06 0.305E-07   0.163E-12 0.497E-13 0.121E-12   -.336E-17 0.418E-17 0.274E-17   -.146E-11 0.138E-11 0.925E-12
   0.304E-06 0.304E-06 0.305E-07   0.105E-12 0.284E-13 -.853E-13   0.336E-17 -.235E-17 0.449E-17   0.726E-12 0.138E-12 0.418E-12
   0.304E-06 0.304E-06 0.305E-07   0.863E-13 -.427E-13 0.203E-13   0.455E-17 -.375E-17 0.637E-18   -.773E-13 -.214E-11 -.163E-11
   0.304E-06 0.304E-06 0.305E-07   0.562E-13 -.356E-13 -.814E-14   -.103E-17 0.705E-18 -.461E-18   -.513E-12 -.171E-11 -.601E-12
   0.304E-06 0.304E-06 0.305E-07   0.120E-12 0.746E-13 -.110E-12   0.813E-19 -.132E-17 0.513E-17   -.190E-12 -.103E-11 0.450E-12
   0.304E-06 0.304E-06 0.305E-07   0.617E-13 0.213E-12 -.568E-13   0.484E-17 -.474E-18 0.414E-17   -.364E-12 -.291E-12 0.703E-12
   0.304E-06 0.304E-06 0.305E-07   0.157E-12 0.520E-13 0.142E-12   0.297E-17 0.301E-17 0.277E-17   -.738E-12 0.562E-12 0.221E-11
   0.304E-06 0.304E-06 0.305E-07   0.984E-13 0.137E-12 0.284E-12   -.241E-17 -.651E-18 0.365E-17   0.492E-14 -.547E-13 0.846E-12
   0.304E-06 0.304E-06 0.305E-07   0.153E-12 -.190E-13 -.142E-12   0.587E-17 -.212E-17 0.713E-17   0.145E-12 -.257E-13 0.134E-11
   0.304E-06 0.304E-06 0.305E-07   0.139E-12 -.832E-14 0.568E-13   -.749E-17 -.217E-17 0.283E-17   -.102E-11 0.218E-12 0.141E-11
   0.304E-06 0.304E-06 0.305E-07   0.288E-12 -.959E-13 -.614E-13   0.149E-18 0.310E-17 0.433E-17   -.646E-12 -.381E-12 -.222E-11
   0.304E-06 0.304E-06 0.305E-07   0.131E-12 -.675E-13 0.251E-14   0.301E-17 -.572E-17 0.329E-17   -.312E-12 -.105E-11 -.185E-11
   0.304E-06 0.304E-06 0.305E-07   0.144E-12 0.875E-13 -.276E-13   -.454E-17 0.360E-17 0.496E-17   -.782E-12 0.163E-11 -.269E-11
   0.304E-06 0.304E-06 0.305E-07   0.142E-12 0.236E-13 -.170E-12   0.758E-17 -.447E-17 0.256E-17   0.932E-13 0.899E-12 -.114E-11
   0.304E-06 0.304E-06 0.306E-07   0.200E-12 0.213E-13 -.213E-13   0.789E-17 -.255E-17 0.339E-17   -.572E-13 0.313E-12 0.129E-11
   0.304E-06 0.304E-06 0.305E-07   0.199E-12 0.171E-12 0.426E-13   -.295E-17 -.474E-19 0.292E-17   -.594E-12 -.499E-12 0.141E-11
   0.304E-06 0.304E-06 0.305E-07   0.107E-12 0.426E-13 -.311E-13   0.446E-17 -.408E-17 0.346E-17   0.806E-13 -.326E-12 -.328E-12
   0.304E-06 0.304E-06 0.305E-07   0.188E-12 0.142E-13 0.293E-13   0.271E-19 -.813E-18 0.589E-17   -.863E-12 0.344E-12 -.132E-11
   0.304E-06 0.304E-06 0.306E-07   0.835E-13 -.497E-13 0.249E-13   0.263E-17 -.183E-17 -.915E-18   -.176E-12 -.208E-11 0.223E-11
   0.304E-06 0.304E-06 0.305E-07   0.139E-12 0.426E-13 -.284E-13   -.270E-17 0.178E-17 0.399E-17   -.393E-12 -.102E-11 0.164E-11
   0.304E-06 0.304E-06 0.305E-07   0.156E-12 0.922E-13 0.853E-13   0.171E-17 0.104E-17 0.268E-17   -.101E-12 -.261E-11 0.161E-11
   0.304E-06 0.304E-06 0.305E-07   0.156E-12 -.855E-13 -.114E-12   -.215E-17 0.234E-17 0.406E-17   -.621E-12 -.144E-11 0.155E-11
   0.304E-06 0.304E-06 0.305E-07   0.224E-12 0.102E-13 0.178E-13   -.217E-17 -.928E-18 0.874E-18   -.128E-11 0.204E-11 0.890E-12
   0.304E-06 0.304E-06 0.305E-07   0.210E-12 0.131E-12 -.107E-13   -.542E-19 0.563E-17 0.271E-17   0.440E-12 0.820E-12 0.112E-11
   0.304E-06 0.304E-06 0.305E-07   0.199E-12 0.568E-13 0.385E-14   0.565E-17 0.508E-18 0.705E-17   -.117E-12 -.122E-11 0.163E-11
   0.304E-06 0.304E-06 0.305E-07   0.142E-12 0.284E-13 0.571E-13   -.187E-17 0.116E-17 0.671E-17   -.633E-12 -.154E-11 0.196E-11
   0.304E-06 0.304E-06 0.305E-07   0.255E-12 0.171E-12 0.153E-12   -.908E-18 -.813E-18 0.415E-17   -.304E-12 -.105E-11 0.114E-11
   0.304E-06 0.304E-06 0.305E-07   0.185E-12 -.284E-13 0.675E-13   0.325E-17 0.257E-18 0.422E-17   -.362E-12 -.728E-12 0.561E-13
 -----------------------------------------------------------------------------------------------
   0.972E-05 0.972E-05 0.977E-06   0.824E-12 0.458E-12 0.149E-11   0.311E-15 -.138E-15 0.331E-15   -.749E-11 -.126E-10 0.171E-10
 
 
 POSITION                                       TOTAL-FORCE (eV/Angst)
 -----------------------------------------------------------------------------------
      0.00000      0.00000      0.00000        -0.000000     -0.000000     -0.000000
      6.05239      0.00000      0.00000        -0.000000     -0.000000     -0.000000
      0.00000      3.02620      3.02620        -0.000000     -0.000000     -0.000000
      6.05239      3.02620      3.02620        -0.000000     -0.000000     -0.000000
      3.02620      0.00000      9.07859        -0.000000     -0.000000     -0.000000
      9.07859      0.00000      9.07859        -0.000000     -0.000000     -0.000000
      3.02620      3.02620      6.05239        -0.000000     -0.000000     -0.000000
      9.07859      3.02620      6.05239        -0.000000     -0.000000     -0.000000
      3.02620      6.05239      3.02620        -0.000000     -0.000000     -0.000000
      9.07859      6.05239      3.02620        -0.000000     -0.000000     -0.000000
      3.02620      9.07859      0.00000        -0.000000     -0.000000     -0.000000
      9.07859      9.07859      0.00000        -0.000000     -0.000000     -0.000000
      0.00000      9.07859      3.02620        -0.000000     -0.000000     -0.000000
      6.05239      9.07859      3.02620        -0.000000     -0.000000     -0.000000
      0.00000      6.05239      6.05239        -0.000000     -0.000000     -0.000000
      6.05239      6.05239      6.05239        -0.000000     -0.000000     -0.000000
      3.02620      9.07859      6.05239        -0.000000     -0.000000     -0.000000
      9.07859      9.07859      6.05239        -0.000000     -0.000000     -0.000000
      3.02620      0.00000      3.02620        -0.000000     -0.000000     -0.000000
      9.07859      0.00000      3.02620        -0.000000     -0.000000     -0.000000
      0.00000      0.00000      6.05239        -0.000000     -0.000000     -0.000000
      6.05239      0.00000      6.05239        -0.000000     -0.000000     -0.000000
      3.02620      6.05239      9.07859        -0.000000     -0.000000     -0.000000
      9.07859      6.05239      9.07859        -0.000000     -0.000000     -0.000000
      0.00000      3.02620      9.07859        -0.000000     -0.000000     -0.000000
      6.05239      3.02620      9.07859        -0.000000     -0.000000     -0.000000
      0.00000      9.07859      9.07859        -0.000000     -0.000000     -0.000000
      6.05239      9.07859      9.07859        -0.000000     -0.000000     -0.000000
      0.00000      6.05239      0.00000        -0.000000     -0.000000     -0.000000
      6.05239      6.05239      0.00000        -0.000000     -0.000000     -0.000000
      3.02620      3.02620      0.00000        -0.000000     -0.000000     -0.000000
      9.07859      3.02620      0.00000        -0.000000     -0.000000     -0.000000
      7.56549      7.56549      7.56549         0.000000      0.000000      0.000000
      1.51310      7.56549      7.56549         0.000000      0.000000      0.000000
      7.56549     10.59168     10.59168         0.000000     -0.000000     -0.000000
      1.51310     10.59168     10.59168         0.000000      0.000000      0.000000
     10.59168      7.56549      4.53929         0.000000      0.000000      0.000000
      4.53929      7.56549      4.53929         0.000000      0.000000      0.000000
     10.59168     10.59168      1.51310         0.000000      0.000000      0.000000
      4.53929     10.59168      1.51310        -0.000000      0.000000      0.000000
     10.59168      1.51310     10.59168        -0.000000     -0.000000      0.000000
      4.53929      1.51310     10.59168         0.000000      0.000000      0.000000
     10.59168      4.53929      7.56549         0.000000      0.000000      0.000000
      4.53929      4.53929      7.56549         0.000000      0.000000      0.000000
      7.56549      4.53929     10.59168         0.000000      0.000000      0.000000
      1.51310      4.53929     10.59168        -0.000000     -0.000000      0.000000
      7.56549      1.51310      1.51310        -0.000000     -0.000000      0.000000
      1.51310      1.51310      1.51310         0.000000      0.000000      0.000000
     10.59168      4.53929      1.51310        -0.000000     -0.000000      0.000000
      4.53929      4.53929      1.51310         0.000000     -0.000000      0.000000
     10.59168      7.56549     10.59168         0.000000      0.000000      0.000000
      4.53929      7.56549     10.59168         0.000000     -0.000000      0.000000
      7.56549      7.56549      1.51310         0.000000      0.000000      0.000000
      1.51310      7.56549      1.51310        -0.000000      0.000000      0.000000
     10.59168      1.51310      4.53929         0.000000      0.000000      0.000000
      4.53929      1.51310      4.53929         0.000000      0.000000      0.000000
      7.56549     10.59168      4.53929         0.000000      0.000000      0.000000
      1.51310     10.59168      4.53929         0.000000      0.000000      0.000000
      7.56549      4.53929      4.53929         0.000000      0.000000      0.000000
      1.51310      4.53929      4.53929         0.000000      0.000000      0.000000
      7.56549      1.51310      7.56549         0.000000      0.000000      0.000000
      1.51310      1.51310      7.56549         0.000000      0.000000     -0.000000
     10.59168     10.59168      7.56549         0.000000      0.000000     -0.000000
      4.53929     10.59168      7.56549         0.000000      0.000000      0.000000
 -----------------------------------------------------------------------------------
    total drift:                                0.000010      0.000010      0.000001


--------------------------------------------------------------------------------------------------------



  FREE ENERGIE OF THE ION-ELECTRON SYSTEM (eV)
  ---------------------------------------------------
  free  energy   TOTEN  =      -294.88794381 eV

  energy  without entropy=     -294.88737247  energy(sigma->0) =     -294.88765814
 


--------------------------------------------------------------------------------------------------------


    POTLOK:  cpu time    0.0420: real time    0.0432


--------------------------------------------------------------------------------------------------------




--------------------------------------------------------------------------------------------------------


  
 reached required accuracy - stopping structural energy minimisation
     LOOP+:  cpu time  311.4826: real time  311.6510
    4ORBIT:  cpu time    0.0000: real time    0.0000

 total amount of memory used by VASP on root node   109743. kBytes
========================================================================

   base      :      30000. kBytes
   nonlr-proj:       7249. kBytes
   fftplans  :       6064. kBytes
   grid      :       9092. kBytes
   one-center:        248. kBytes
   wavefun   :      57090. kBytes
 
  
  
 General timing and accounting informations for this job:
 ========================================================
  
                  Total CPU time used (sec):      321.989
                            User time (sec):      315.159
                          System time (sec):        6.830
                         Elapsed time (sec):      322.405
  
                   Maximum memory used (kb):      145864.
                   Average memory used (kb):           0.
  
                          Minor page faults:      2711796
                          Major page faults:           94
                 Voluntary context switches:         4016
