 vasp.5.4.1 05Feb16 (build Aug 18 2016 13:20:29) complex                        
  
 executed on           IFC91_ompi date 2018.05.31  17:32:22
 running on   28 total cores
 distrk:  each k-point on   28 cores,    1 groups
 distr:  one band on NCORES_PER_BAND=   4 cores,    7 groups


--------------------------------------------------------------------------------------------------------


 INCAR:
 POTCAR:    PAW Ga_d 06Jul2010                    
 POTCAR:    PAW As_d 11Apr2003                    
 POTCAR:    PAW Ga_d 06Jul2010                    
   VRHFIN =Ga: s2p1                                                             
   LEXCH  = CA                                                                  
   EATOM  =  2154.4592 eV,  158.3483 Ry                                         
                                                                                
   TITEL  = PAW Ga_d 06Jul2010                                                  
   LULTRA =        F    use ultrasoft PP ?                                      
   IUNSCR =        1    unscreen: 0-lin 1-nonlin 2-no                           
   RPACOR =    1.700    partial core radius                                     
   POMASS =   69.723; ZVAL   =   13.000    mass and valenz                      
   RCORE  =    2.300    outmost cutoff radius                                   
   RWIGS  =    2.300; RWIGS  =    1.217    wigner-seitz radius (au A)           
   ENMAX  =  282.829; ENMIN  =  212.121 eV                                      
   ICORE  =        3    local potential                                         
   LCOR   =        T    correct aug charges                                     
   LPAW   =        T    paw PP                                                  
   EAUG   =  490.690                                                            
   DEXC   =    0.000                                                            
   RMAX   =    2.341    core radius for proj-oper                               
   RAUG   =    1.300    factor for augmentation sphere                          
   RDEP   =    2.413    radius for radial grids                                 
   RDEPT  =    1.856    core radius for aug-charge                              
                                                                                
   Atomic configuration                                                         
    9 entries                                                                   
     n  l   j            E        occ.                                          
     1  0  0.50    -10177.9539   2.0000                                         
     2  0  0.50     -1257.0037   2.0000                                         
     2  1  1.50     -1096.5304   6.0000                                         
     3  0  0.50      -147.0449   2.0000                                         
     3  1  1.50       -98.5146   6.0000                                         
     3  2  2.50       -19.4350  10.0000                                         
     4  0  0.50        -9.1573   2.0000                                         
     4  1  0.50        -2.7399   1.0000                                         
     4  3  2.50        -2.7416   0.0000                                         
   Description                                                                  
     l       E           TYP  RCUT    TYP  RCUT                                 
     2    -19.4350265     23  2.300                                             
     2     -5.4423304     23  2.300                                             
     0     -9.1573136     23  2.300                                             
     0     68.0291300     23  2.300                                             
     1     -2.7399180     23  2.100                                             
     1     81.6349560     23  2.300                                             
     3      6.8029130     23  2.300                                             
  local pseudopotential read in
  partial core-charges read in
  partial kinetic energy density read in
  atomic valenz-charges read in
  non local Contribution for L=           2  read in
    real space projection operators read in
  non local Contribution for L=           2  read in
    real space projection operators read in
  non local Contribution for L=           0  read in
    real space projection operators read in
  non local Contribution for L=           0  read in
    real space projection operators read in
  non local Contribution for L=           1  read in
    real space projection operators read in
  non local Contribution for L=           1  read in
    real space projection operators read in
    PAW grid and wavefunctions read in
 
   number of l-projection  operators is LMAX  =           6
   number of lm-projection operators is LMMAX =          18
 
 POTCAR:    PAW As_d 11Apr2003                    
   VRHFIN =As: d10s2p3                                                          
   LEXCH  = CA                                                                  
   EATOM  =  3100.2560 eV,  227.8624 Ry                                         
                                                                                
   TITEL  = PAW As_d 11Apr2003                                                  
   LULTRA =        F    use ultrasoft PP ?                                      
   IUNSCR =        1    unscreen: 0-lin 1-nonlin 2-no                           
   RPACOR =    2.000    partial core radius                                     
   POMASS =   74.922; ZVAL   =   15.000    mass and valenz                      
   RCORE  =    2.300    outmost cutoff radius                                   
   RWIGS  =    2.300; RWIGS  =    1.217    wigner-seitz radius (au A)           
   ENMAX  =  288.762; ENMIN  =  216.572 eV                                      
   ICORE  =        3    local potential                                         
   LCOR   =        T    correct aug charges                                     
   LPAW   =        T    paw PP                                                  
   EAUG   =  525.949                                                            
   DEXC   =    0.000                                                            
   RMAX   =    2.360    core radius for proj-oper                               
   RAUG   =    1.300    factor for augmentation sphere                          
   RDEP   =    2.432    radius for radial grids                                 
   RDEPT  =    1.871    core radius for aug-charge                              
                                                                                
   Atomic configuration                                                         
    9 entries                                                                   
     n  l   j            E        occ.                                          
     1  0  0.50    -11659.1331   2.0000                                         
     2  0  0.50     -1480.5455   2.0000                                         
     2  1  1.50     -1300.8395   6.0000                                         
     3  0  0.50      -189.0128   2.0000                                         
     3  1  1.50      -133.2331   6.0000                                         
     3  2  2.50       -40.9396  10.0000                                         
     4  0  0.50       -14.6732   2.0000                                         
     4  1  0.50        -5.3484   3.0000                                         
     4  3  2.50        -5.4423   0.0000                                         
   Description                                                                  
     l       E           TYP  RCUT    TYP  RCUT                                 
     2    -40.9396402     23  2.300                                             
     2     -1.3605826     23  2.300                                             
     0    -14.6731860     23  2.300                                             
     0    -12.1858709     23  2.300                                             
     1     -5.3484093     23  2.300                                             
     1      1.7733903     23  2.300                                             
     3     -1.3605826      7  2.300                                             
  local pseudopotential read in
  partial core-charges read in
  partial kinetic energy density read in
  atomic valenz-charges read in
  non local Contribution for L=           2  read in
    real space projection operators read in
  non local Contribution for L=           2  read in
    real space projection operators read in
  non local Contribution for L=           0  read in
    real space projection operators read in
  non local Contribution for L=           0  read in
    real space projection operators read in
  non local Contribution for L=           1  read in
    real space projection operators read in
  non local Contribution for L=           1  read in
    real space projection operators read in
    PAW grid and wavefunctions read in
 
   number of l-projection  operators is LMAX  =           6
   number of lm-projection operators is LMMAX =          18
 
 Optimization of the real space projectors (new method)

 maximal supplied QI-value         = 16.25
 optimisation between [QCUT,QGAM] = [ 11.38, 22.75] = [ 36.24,144.96] Ry 
 Optimized for a Real-space Cutoff    1.35 Angstroem

   l    n(q)    QCUT    max X(q) W(low)/X(q) W(high)/X(q)  e(spline) 
   2      8    11.376     7.160    0.23E-03    0.28E-03    0.13E-06
   2      8    11.376     5.555    0.49E-03    0.56E-03    0.20E-06
   0      9    11.376    12.310    0.60E-04    0.47E-04    0.22E-07
   0      9    11.376     6.591    0.12E-03    0.98E-04    0.49E-07
   1      9    11.376     7.817    0.22E-03    0.30E-03    0.14E-06
   1      9    11.376     2.416    0.19E-03    0.26E-03    0.13E-06
 Optimization of the real space projectors (new method)

 maximal supplied QI-value         = 16.25
 optimisation between [QCUT,QGAM] = [ 11.38, 22.75] = [ 36.24,144.96] Ry 
 Optimized for a Real-space Cutoff    1.27 Angstroem

   l    n(q)    QCUT    max X(q) W(low)/X(q) W(high)/X(q)  e(spline) 
   2      8    11.376    15.961    0.11E-03    0.23E-03    0.99E-07
   2      8    11.376     6.274    0.17E-03    0.37E-03    0.13E-06
   0      9    11.376    98.969    0.92E-04    0.20E-03    0.90E-07
   0      9    11.376    79.622    0.98E-04    0.21E-03    0.96E-07
   1      8    11.376    38.979    0.40E-03    0.88E-04    0.16E-06
   1      8    11.376    26.921    0.39E-03    0.93E-04    0.16E-06
  PAW Ga_d 06Jul2010                    :
 energy of atom  1       EATOM=-2154.4592
 kinetic energy error for atom=    0.0027 (will be added to EATOM!!)
  PAW As_d 11Apr2003                    :
 energy of atom  2       EATOM=-3100.2560
 kinetic energy error for atom=    0.0019 (will be added to EATOM!!)
 
 
 POSCAR: POSCAR with -8.23987132543              
  positions in direct lattice
  No initial velocities read in
 exchange correlation table for  LEXCH =        2
   RHO(1)=    0.500       N(1)  =     2000
   RHO(2)=  100.500       N(2)  =     4000
 


--------------------------------------------------------------------------------------------------------


 ion  position               nearest neighbor table
   1  0.000  0.000  0.000-  36 2.64  39 2.64  41 2.64  48 2.64
   2  0.500  0.000  0.000-  35 2.64  40 2.64  42 2.64  47 2.64
   3  0.000  0.250  0.250-  48 2.64  49 2.64  55 2.64  60 2.64
   4  0.500  0.250  0.250-  47 2.64  50 2.64  56 2.64  59 2.64
   5  0.250  0.000  0.750-  36 2.64  42 2.64  62 2.64  64 2.64
   6  0.750  0.000  0.750-  35 2.64  41 2.64  61 2.64  63 2.64
   7  0.250  0.250  0.500-  44 2.64  56 2.64  60 2.64  62 2.64
   8  0.750  0.250  0.500-  43 2.64  55 2.64  59 2.64  61 2.64
   9  0.250  0.500  0.250-  38 2.64  50 2.64  54 2.64  60 2.64
  10  0.750  0.500  0.250-  37 2.64  49 2.64  53 2.64  59 2.64
  11  0.250  0.750  0.000-  36 2.64  40 2.64  52 2.64  54 2.64
  12  0.750  0.750  0.000-  35 2.64  39 2.64  51 2.64  53 2.64
  13  0.000  0.750  0.250-  37 2.64  39 2.64  54 2.64  58 2.64
  14  0.500  0.750  0.250-  38 2.64  40 2.64  53 2.64  57 2.64
  15  0.000  0.500  0.500-  34 2.64  37 2.64  43 2.64  60 2.64
  16  0.500  0.500  0.500-  33 2.64  38 2.64  44 2.64  59 2.64
  17  0.250  0.750  0.500-  34 2.64  38 2.64  58 2.64  64 2.64
  18  0.750  0.750  0.500-  33 2.64  37 2.64  57 2.64  63 2.64
  19  0.250  0.000  0.250-  40 2.64  48 2.64  56 2.64  58 2.64
  20  0.750  0.000  0.250-  39 2.64  47 2.64  55 2.64  57 2.64
  21  0.000  0.000  0.500-  55 2.64  58 2.64  62 2.64  63 2.64
  22  0.500  0.000  0.500-  56 2.64  57 2.64  61 2.64  64 2.64
  23  0.250  0.500  0.750-  34 2.64  44 2.64  46 2.64  52 2.64
  24  0.750  0.500  0.750-  33 2.64  43 2.64  45 2.64  51 2.64
  25  0.000  0.250  0.750-  41 2.64  43 2.64  46 2.64  62 2.64
  26  0.500  0.250  0.750-  42 2.64  44 2.64  45 2.64  61 2.64
  27  0.000  0.750  0.750-  34 2.64  36 2.64  51 2.64  63 2.64
  28  0.500  0.750  0.750-  33 2.64  35 2.64  52 2.64  64 2.64
  29  0.000  0.500  0.000-  46 2.64  49 2.64  51 2.64  54 2.64
  30  0.500  0.500  0.000-  45 2.64  50 2.64  52 2.64  53 2.64
  31  0.250  0.250  0.000-  42 2.64  46 2.64  48 2.64  50 2.64
  32  0.750  0.250  0.000-  41 2.64  45 2.64  47 2.64  49 2.64
  33  0.625  0.625  0.625-  16 2.64  18 2.64  24 2.64  28 2.64
  34  0.125  0.625  0.625-  15 2.64  17 2.64  23 2.64  27 2.64
  35  0.625  0.875  0.875-   2 2.64   6 2.64  12 2.64  28 2.64
  36  0.125  0.875  0.875-   1 2.64   5 2.64  11 2.64  27 2.64
  37  0.875  0.625  0.375-  10 2.64  13 2.64  15 2.64  18 2.64
  38  0.375  0.625  0.375-   9 2.64  14 2.64  16 2.64  17 2.64
  39  0.875  0.875  0.125-   1 2.64  12 2.64  13 2.64  20 2.64
  40  0.375  0.875  0.125-   2 2.64  11 2.64  14 2.64  19 2.64
  41  0.875  0.125  0.875-   1 2.64   6 2.64  25 2.64  32 2.64
  42  0.375  0.125  0.875-   2 2.64   5 2.64  26 2.64  31 2.64
  43  0.875  0.375  0.625-   8 2.64  15 2.64  24 2.64  25 2.64
  44  0.375  0.375  0.625-   7 2.64  16 2.64  23 2.64  26 2.64
  45  0.625  0.375  0.875-  24 2.64  26 2.64  30 2.64  32 2.64
  46  0.125  0.375  0.875-  23 2.64  25 2.64  29 2.64  31 2.64
  47  0.625  0.125  0.125-   2 2.64   4 2.64  20 2.64  32 2.64
  48  0.125  0.125  0.125-   1 2.64   3 2.64  19 2.64  31 2.64
  49  0.875  0.375  0.125-   3 2.64  10 2.64  29 2.64  32 2.64
  50  0.375  0.375  0.125-   4 2.64   9 2.64  30 2.64  31 2.64
  51  0.875  0.625  0.875-  12 2.64  24 2.64  27 2.64  29 2.64
  52  0.375  0.625  0.875-  11 2.64  23 2.64  28 2.64  30 2.64
  53  0.625  0.625  0.125-  10 2.64  12 2.64  14 2.64  30 2.64
  54  0.125  0.625  0.125-   9 2.64  11 2.64  13 2.64  29 2.64
  55  0.875  0.125  0.375-   3 2.64   8 2.64  20 2.64  21 2.64
  56  0.375  0.125  0.375-   4 2.64   7 2.64  19 2.64  22 2.64
  57  0.625  0.875  0.375-  14 2.64  18 2.64  20 2.64  22 2.64
  58  0.125  0.875  0.375-  13 2.64  17 2.64  19 2.64  21 2.64
  59  0.625  0.375  0.375-   4 2.64   8 2.64  10 2.64  16 2.64
  60  0.125  0.375  0.375-   3 2.64   7 2.64   9 2.64  15 2.64
  61  0.625  0.125  0.625-   6 2.64   8 2.64  22 2.64  26 2.64
  62  0.125  0.125  0.625-   5 2.64   7 2.64  21 2.64  25 2.64
  63  0.875  0.875  0.625-   6 2.64  18 2.64  21 2.64  27 2.64
  64  0.375  0.875  0.625-   5 2.64  17 2.64  22 2.64  28 2.64
 
  LATTYP: Found a simple cubic cell.
 ALAT       =    12.1844873428
  
  Lattice vectors:
  
 A1 = (  12.1844873428,   0.0000000000,   0.0000000000)
 A2 = (   0.0000000000,  12.1844873428,   0.0000000000)
 A3 = (   0.0000000000,   0.0000000000,  12.1844873428)


Analysis of symmetry for initial positions (statically):
=====================================================================
 Subroutine PRICEL returns following result:
 
  LATTYP: Found a face centered cubic cell.
 ALAT       =     6.0922436714
  
  Lattice vectors:
  
 A1 = (   3.0461218357,   3.0461218357,  -0.0000000000)
 A2 = (   3.0461218357,   0.0000000000,  -3.0461218357)
 A3 = (   0.0000000000,   3.0461218357,  -3.0461218357)
 
  32 primitive cells build up your supercell.
 

 Routine SETGRP: Setting up the symmetry group for a 
 simple cubic supercell.


 Subroutine GETGRP returns: Found 24 space group operations
 (whereof 24 operations were pure point group operations)
 out of a pool of 48 trial point group operations.


The static configuration has the point symmetry T_d .


Analysis of symmetry for dynamics (positions and initial velocities):
=====================================================================
 Subroutine PRICEL returns following result:
 
  LATTYP: Found a face centered cubic cell.
 ALAT       =     6.0922436714
  
  Lattice vectors:
  
 A1 = (   3.0461218357,   3.0461218357,  -0.0000000000)
 A2 = (   3.0461218357,   0.0000000000,  -3.0461218357)
 A3 = (   0.0000000000,   3.0461218357,  -3.0461218357)
 
  32 primitive cells build up your supercell.
 

 Routine SETGRP: Setting up the symmetry group for a 
 simple cubic supercell.


 Subroutine GETGRP returns: Found 24 space group operations
 (whereof 24 operations were pure point group operations)
 out of a pool of 48 trial point group operations.


The dynamic configuration has the point symmetry T_d .


 Subroutine INISYM returns: Found 24 space group operations
 (whereof 24 operations are pure point group operations),
 and found    32 'primitive' translations

 
 
 KPOINTS: koint                                   

Automatic generation of k-mesh.
Space group operators:
 irot       det(A)        alpha          n_x          n_y          n_z        tau_x        tau_y        tau_z
    1     1.000000     0.000000     1.000000     0.000000     0.000000     0.000000     0.000000     0.000000
    2     1.000000   120.000000    -0.577350    -0.577350    -0.577350     0.000000     0.000000     0.000000
    3     1.000000   120.000000     0.577350     0.577350     0.577350     0.000000     0.000000     0.000000
    4    -1.000000    90.000000     0.000000     0.000000    -1.000000     0.000000     0.000000     0.000000
    5    -1.000000   180.000000     0.000000     0.707107     0.707107     0.000000     0.000000     0.000000
    6    -1.000000    90.000000     0.000000     1.000000     0.000000     0.000000     0.000000     0.000000
    7     1.000000   180.000000     0.000000     0.000000     1.000000     0.000000     0.000000     0.000000
    8     1.000000   120.000000    -0.577350     0.577350     0.577350     0.000000     0.000000     0.000000
    9     1.000000   120.000000    -0.577350     0.577350    -0.577350     0.000000     0.000000     0.000000
   10    -1.000000    90.000000     0.000000     0.000000     1.000000     0.000000     0.000000     0.000000
   11    -1.000000    90.000000    -1.000000     0.000000     0.000000     0.000000     0.000000     0.000000
   12    -1.000000   180.000000     0.707107     0.000000     0.707107     0.000000     0.000000     0.000000
   13     1.000000   120.000000     0.577350    -0.577350     0.577350     0.000000     0.000000     0.000000
   14     1.000000   120.000000    -0.577350    -0.577350     0.577350     0.000000     0.000000     0.000000
   15     1.000000   180.000000     1.000000     0.000000     0.000000     0.000000     0.000000     0.000000
   16    -1.000000    90.000000     0.000000    -1.000000     0.000000     0.000000     0.000000     0.000000
   17    -1.000000   180.000000     0.707107     0.707107     0.000000     0.000000     0.000000     0.000000
   18    -1.000000    90.000000     1.000000     0.000000     0.000000     0.000000     0.000000     0.000000
   19     1.000000   120.000000     0.577350    -0.577350    -0.577350     0.000000     0.000000     0.000000
   20     1.000000   180.000000     0.000000     1.000000     0.000000     0.000000     0.000000     0.000000
   21     1.000000   120.000000     0.577350     0.577350    -0.577350     0.000000     0.000000     0.000000
   22    -1.000000   180.000000     0.000000    -0.707107     0.707107     0.000000     0.000000     0.000000
   23    -1.000000   180.000000     0.707107    -0.707107     0.000000     0.000000     0.000000     0.000000
   24    -1.000000   180.000000     0.707107     0.000000    -0.707107     0.000000     0.000000     0.000000
 
 Subroutine IBZKPT returns following result:
 ===========================================
 
 Found      4 irreducible k-points:
 
 Following reciprocal coordinates:
            Coordinates               Weight
  0.000000  0.000000  0.000000      1.000000
  0.333333  0.000000  0.000000      6.000000
  0.333333  0.333333  0.000000     12.000000
  0.333333  0.333333  0.333333      8.000000
 
 Following cartesian coordinates:
            Coordinates               Weight
  0.000000  0.000000  0.000000      1.000000
  0.027357  0.000000  0.000000      6.000000
  0.027357  0.027357  0.000000     12.000000
  0.027357  0.027357  0.027357      8.000000
 


--------------------------------------------------------------------------------------------------------




 Dimension of arrays:
   k-points           NKPTS =      4   k-points in BZ     NKDIM =      4   number of bands    NBANDS=    539
   number of dos      NEDOS =    301   number of ions     NIONS =     64
   non local maximal  LDIM  =      6   non local SUM 2l+1 LMDIM =     18
   total plane-waves  NPLWV = 343000
   max r-space proj   IRMAX =   2001   max aug-charges    IRDMAX=   7385
   dimension x,y,z NGX =    70 NGY =   70 NGZ =   70
   dimension x,y,z NGXF=   140 NGYF=  140 NGZF=  140
   support grid    NGXF=   140 NGYF=  140 NGZF=  140
   ions per type =              32  32
 NGX,Y,Z   is equivalent  to a cutoff of   9.55,  9.55,  9.55 a.u.
 NGXF,Y,Z  is equivalent  to a cutoff of  19.10, 19.10, 19.10 a.u.


 I would recommend the setting:
   dimension x,y,z NGX =    67 NGY =   67 NGZ =   67
 SYSTEM =  GaAsSb_x=25                             
 POSCAR =  POSCAR with -8.23987132543              

 Startparameter for this run:
   NWRITE =      2    write-flag & timer
   PREC   = normal    normal or accurate (medium, high low for compatibility)
   ISTART =      0    job   : 0-new  1-cont  2-samecut
   ICHARG =      2    charge: 1-file 2-atom 10-const
   ISPIN  =      1    spin polarized calculation?
   LNONCOLLINEAR =      F non collinear calculations
   LSORBIT =      F    spin-orbit coupling
   INIWAV =      1    electr: 0-lowe 1-rand  2-diag
   LASPH  =      F    aspherical Exc in radial PAW
   METAGGA=      F    non-selfconsistent MetaGGA calc.

 Electronic Relaxation 1
   ENCUT  =  500.0 eV  36.75 Ry    6.06 a.u.  22.22 22.22 22.22*2*pi/ulx,y,z
   ENINI  =  500.0     initial cutoff
   ENAUG  =  525.9 eV  augmentation charge cutoff
   NELM   =     60;   NELMIN=  2; NELMDL= -5     # of ELM steps 
   EDIFF  = 0.1E-05   stopping-criterion for ELM
   LREAL  =      T    real-space projection
   NLSPLINE    = F    spline interpolate recip. space projectors
   LCOMPAT=      F    compatible to vasp.4.4
   GGA_COMPAT  = T    GGA compatible to vasp.4.4-vasp.4.6
   LMAXPAW     = -100 max onsite density
   LMAXMIX     =    2 max onsite mixed and CHGCAR
   VOSKOWN=      0    Vosko Wilk Nusair interpolation
   ROPT   =   -0.00050  -0.00050
 Ionic relaxation
   EDIFFG = -.2E-01   stopping-criterion for IOM
   NSW    =    100    number of steps for IOM
   NBLOCK =      1;   KBLOCK =    100    inner block; outer block 
   IBRION =      2    ionic relax: 0-MD 1-quasi-New 2-CG
   NFREE  =      1    steps in history (QN), initial steepest desc. (CG)
   ISIF   =      3    stress and relaxation
   IWAVPR =     11    prediction:  0-non 1-charg 2-wave 3-comb
   ISYM   =      2    0-nonsym 1-usesym 2-fastsym
   LCORR  =      T    Harris-Foulkes like correction to forces

   POTIM  = 0.5000    time-step for ionic-motion
   TEIN   =    0.0    initial temperature
   TEBEG  =    0.0;   TEEND  =   0.0 temperature during run
   SMASS  =  -3.00    Nose mass-parameter (am)
   estimated Nose-frequenzy (Omega)   =  0.10E-29 period in steps =****** mass=  -0.339E-26a.u.
   SCALEE = 1.0000    scale energy and forces
   NPACO  =    256;   APACO  = 16.0  distance and # of slots for P.C.
   PSTRESS=    0.0 pullay stress

  Mass of Ions in am
   POMASS =  69.72 74.92
  Ionic Valenz
   ZVAL   =  13.00 15.00
  Atomic Wigner-Seitz radii
   RWIGS  =  -1.00 -1.00
  virtual crystal weights 
   VCA    =   1.00  1.00
   NELECT =     896.0000    total number of electrons
   NUPDOWN=      -1.0000    fix difference up-down

 DOS related values:
   EMIN   =  10.00;   EMAX   =-10.00  energy-range for DOS
   EFERMI =   0.00
   ISMEAR =     0;   SIGMA  =   0.01  broadening in eV -4-tet -1-fermi 0-gaus

 Electronic relaxation 2 (details)
   IALGO  =     38    algorithm
   LDIAG  =      T    sub-space diagonalisation (order eigenvalues)
   LSUBROT=      F    optimize rotation matrix (better conditioning)
   TURBO    =      0    0=normal 1=particle mesh
   IRESTART =      0    0=no restart 2=restart with 2 vectors
   NREBOOT  =      0    no. of reboots
   NMIN     =      0    reboot dimension
   EREF     =   0.00    reference energy to select bands
   IMIX   =      4    mixing-type and parameters
     AMIX     =   0.40;   BMIX     =  1.00
     AMIX_MAG =   1.60;   BMIX_MAG =  1.00
     AMIN     =   0.10
     WC   =   100.;   INIMIX=   1;  MIXPRE=   1;  MAXMIX= -45

 Intra band minimization:
   WEIMIN = 0.0010     energy-eigenvalue tresh-hold
   EBREAK =  0.46E-09  absolut break condition
   DEPER  =   0.30     relativ break condition  

   TIME   =   0.40     timestep for ELM

  volume/ion in A,a.u.               =      28.26       190.74
  Fermi-wavevector in a.u.,A,eV,Ry     =   1.295300  2.447761 22.827870  1.677801
  Thomas-Fermi vector in A             =   2.426828
 
 Write flags
   LWAVE  =      F    write WAVECAR
   LCHARG =      F    write CHGCAR
   LVTOT  =      F    write LOCPOT, total local potential
   LVHAR  =      F    write LOCPOT, Hartree potential only
   LELF   =      F    write electronic localiz. function (ELF)
   LORBIT =      0    0 simple, 1 ext, 2 COOP (PROOUT)


 Dipole corrections
   LMONO  =      F    monopole corrections only (constant potential shift)
   LDIPOL =      F    correct potential (dipole corrections)
   IDIPOL =      0    1-x, 2-y, 3-z, 4-all directions 
   EPSILON=  1.0000000 bulk dielectric constant

 Exchange correlation treatment:
   GGA     =    --    GGA type
   LEXCH   =     2    internal setting for exchange type
   VOSKOWN=      0    Vosko Wilk Nusair interpolation
   LHFCALC =     F    Hartree Fock is set to
   LHFONE  =     F    Hartree Fock one center treatment
   AEXX    =    0.0000 exact exchange contribution

 Linear response parameters
   LEPSILON=     F    determine dielectric tensor
   LRPA    =     F    only Hartree local field effects (RPA)
   LNABLA  =     F    use nabla operator in PAW spheres
   LVEL    =     F    velocity operator in full k-point grid
   LINTERFAST=   F  fast interpolation
   KINTER  =     0    interpolate to denser k-point grid
   CSHIFT  =0.1000    complex shift for real part using Kramers Kronig
   OMEGAMAX=  -1.0    maximum frequency
   DEG_THRESHOLD= 0.2000000E-02 threshold for treating states as degnerate
   RTIME   =    0.100 relaxation time in fs

 Orbital magnetization related:
   ORBITALMAG=     F  switch on orbital magnetization
   LCHIMAG   =     F  perturbation theory with respect to B field
   DQ        =  0.001000  dq finite difference perturbation B field



--------------------------------------------------------------------------------------------------------


 conjugate gradient relaxation of ions
 charge density and potential will be updated during run
 non-spin polarized calculation
 Variant of blocked Davidson
 Davidson routine will perform the subspace rotation
 perform sub-space diagonalisation
    after iterative eigenvector-optimisation
 modified Broyden-mixing scheme, WC =      100.0
 initial mixing is a Kerker type mixing with AMIX =  0.4000 and BMIX =      1.0000
 Hartree-type preconditioning will be used
 using additional bands           91
 real space projection scheme for non local part
 use partial core corrections
 calculate Harris-corrections to forces 
   (improved forces if not selfconsistent)
 use of overlap-Matrix (Vanderbilt PP)
 Gauss-broadening in eV      SIGMA  =   0.01


--------------------------------------------------------------------------------------------------------


  energy-cutoff  :      500.00
  volume of cell :     1808.93
      direct lattice vectors                 reciprocal lattice vectors
    12.184487343  0.000000000  0.000000000     0.082071570  0.000000000  0.000000000
     0.000000000 12.184487343  0.000000000     0.000000000  0.082071570  0.000000000
     0.000000000  0.000000000 12.184487343     0.000000000  0.000000000  0.082071570

  length of vectors
    12.184487343 12.184487343 12.184487343     0.082071570  0.082071570  0.082071570


 
 k-points in units of 2pi/SCALE and weight: koint                                   
   0.00000000  0.00000000  0.00000000       0.037
   0.02735719  0.00000000  0.00000000       0.222
   0.02735719  0.02735719  0.00000000       0.444
   0.02735719  0.02735719  0.02735719       0.296
 
 k-points in reciprocal lattice and weights: koint                                   
   0.00000000  0.00000000  0.00000000       0.037
   0.33333333  0.00000000  0.00000000       0.222
   0.33333333  0.33333333  0.00000000       0.444
   0.33333333  0.33333333  0.33333333       0.296
 
 position of ions in fractional coordinates (direct lattice) 
   0.00000000  0.00000000  0.00000000
   0.50000000  0.00000000  0.00000000
   0.00000000  0.25000000  0.25000000
   0.50000000  0.25000000  0.25000000
   0.25000000  0.00000000  0.75000000
   0.75000000  0.00000000  0.75000000
   0.25000000  0.25000000  0.50000000
   0.75000000  0.25000000  0.50000000
   0.25000000  0.50000000  0.25000000
   0.75000000  0.50000000  0.25000000
   0.25000000  0.75000000  0.00000000
   0.75000000  0.75000000  0.00000000
   0.00000000  0.75000000  0.25000000
   0.50000000  0.75000000  0.25000000
   0.00000000  0.50000000  0.50000000
   0.50000000  0.50000000  0.50000000
   0.25000000  0.75000000  0.50000000
   0.75000000  0.75000000  0.50000000
   0.25000000  0.00000000  0.25000000
   0.75000000  0.00000000  0.25000000
   0.00000000  0.00000000  0.50000000
   0.50000000  0.00000000  0.50000000
   0.25000000  0.50000000  0.75000000
   0.75000000  0.50000000  0.75000000
   0.00000000  0.25000000  0.75000000
   0.50000000  0.25000000  0.75000000
   0.00000000  0.75000000  0.75000000
   0.50000000  0.75000000  0.75000000
   0.00000000  0.50000000  0.00000000
   0.50000000  0.50000000  0.00000000
   0.25000000  0.25000000  0.00000000
   0.75000000  0.25000000  0.00000000
   0.62500000  0.62500000  0.62500000
   0.12500000  0.62500000  0.62500000
   0.62500000  0.87500000  0.87500000
   0.12500000  0.87500000  0.87500000
   0.87500000  0.62500000  0.37500000
   0.37500000  0.62500000  0.37500000
   0.87500000  0.87500000  0.12500000
   0.37500000  0.87500000  0.12500000
   0.87500000  0.12500000  0.87500000
   0.37500000  0.12500000  0.87500000
   0.87500000  0.37500000  0.62500000
   0.37500000  0.37500000  0.62500000
   0.62500000  0.37500000  0.87500000
   0.12500000  0.37500000  0.87500000
   0.62500000  0.12500000  0.12500000
   0.12500000  0.12500000  0.12500000
   0.87500000  0.37500000  0.12500000
   0.37500000  0.37500000  0.12500000
   0.87500000  0.62500000  0.87500000
   0.37500000  0.62500000  0.87500000
   0.62500000  0.62500000  0.12500000
   0.12500000  0.62500000  0.12500000
   0.87500000  0.12500000  0.37500000
   0.37500000  0.12500000  0.37500000
   0.62500000  0.87500000  0.37500000
   0.12500000  0.87500000  0.37500000
   0.62500000  0.37500000  0.37500000
   0.12500000  0.37500000  0.37500000
   0.62500000  0.12500000  0.62500000
   0.12500000  0.12500000  0.62500000
   0.87500000  0.87500000  0.62500000
   0.37500000  0.87500000  0.62500000
 
 position of ions in cartesian coordinates  (Angst):
   0.00000000  0.00000000  0.00000000
   6.09224367  0.00000000  0.00000000
   0.00000000  3.04612184  3.04612184
   6.09224367  3.04612184  3.04612184
   3.04612184  0.00000000  9.13836551
   9.13836551  0.00000000  9.13836551
   3.04612184  3.04612184  6.09224367
   9.13836551  3.04612184  6.09224367
   3.04612184  6.09224367  3.04612184
   9.13836551  6.09224367  3.04612184
   3.04612184  9.13836551  0.00000000
   9.13836551  9.13836551  0.00000000
   0.00000000  9.13836551  3.04612184
   6.09224367  9.13836551  3.04612184
   0.00000000  6.09224367  6.09224367
   6.09224367  6.09224367  6.09224367
   3.04612184  9.13836551  6.09224367
   9.13836551  9.13836551  6.09224367
   3.04612184  0.00000000  3.04612184
   9.13836551  0.00000000  3.04612184
   0.00000000  0.00000000  6.09224367
   6.09224367  0.00000000  6.09224367
   3.04612184  6.09224367  9.13836551
   9.13836551  6.09224367  9.13836551
   0.00000000  3.04612184  9.13836551
   6.09224367  3.04612184  9.13836551
   0.00000000  9.13836551  9.13836551
   6.09224367  9.13836551  9.13836551
   0.00000000  6.09224367  0.00000000
   6.09224367  6.09224367  0.00000000
   3.04612184  3.04612184  0.00000000
   9.13836551  3.04612184  0.00000000
   7.61530459  7.61530459  7.61530459
   1.52306092  7.61530459  7.61530459
   7.61530459 10.66142642 10.66142642
   1.52306092 10.66142642 10.66142642
  10.66142642  7.61530459  4.56918275
   4.56918275  7.61530459  4.56918275
  10.66142642 10.66142642  1.52306092
   4.56918275 10.66142642  1.52306092
  10.66142642  1.52306092 10.66142642
   4.56918275  1.52306092 10.66142642
  10.66142642  4.56918275  7.61530459
   4.56918275  4.56918275  7.61530459
   7.61530459  4.56918275 10.66142642
   1.52306092  4.56918275 10.66142642
   7.61530459  1.52306092  1.52306092
   1.52306092  1.52306092  1.52306092
  10.66142642  4.56918275  1.52306092
   4.56918275  4.56918275  1.52306092
  10.66142642  7.61530459 10.66142642
   4.56918275  7.61530459 10.66142642
   7.61530459  7.61530459  1.52306092
   1.52306092  7.61530459  1.52306092
  10.66142642  1.52306092  4.56918275
   4.56918275  1.52306092  4.56918275
   7.61530459 10.66142642  4.56918275
   1.52306092 10.66142642  4.56918275
   7.61530459  4.56918275  4.56918275
   1.52306092  4.56918275  4.56918275
   7.61530459  1.52306092  7.61530459
   1.52306092  1.52306092  7.61530459
  10.66142642 10.66142642  7.61530459
   4.56918275 10.66142642  7.61530459
 


--------------------------------------------------------------------------------------------------------


 k-point  1 :   0.0000 0.0000 0.0000  plane waves:   45961
 k-point  2 :   0.3333 0.0000 0.0000  plane waves:   45956
 k-point  3 :   0.3333 0.3333 0.0000  plane waves:   45902
 k-point  4 :   0.3333 0.3333 0.3333  plane waves:   45914

 maximum and minimum number of plane-waves per node :     11500    11450

 maximum number of plane-waves:     45961
 maximum index in each direction: 
   IXMAX=   22   IYMAX=   22   IZMAX=   22
   IXMIN=  -22   IYMIN=  -22   IZMIN=  -22

 WARNING: aliasing errors must be expected set NGX to  90 to avoid them
 WARNING: aliasing errors must be expected set NGY to  90 to avoid them
 WARNING: aliasing errors must be expected set NGZ to  90 to avoid them
 aliasing errors are usually negligible using standard VASP settings
 and one can safely disregard these warnings

 real space projection operators:
  total allocation   :      15739.88 KBytes
  max/ min on nodes  :       4039.88       3830.06


 parallel 3D FFT for wavefunctions:
    minimum data exchange during FFTs selected (reduces bandwidth)
 parallel 3D FFT for charge:
    minimum data exchange during FFTs selected (reduces bandwidth)


 total amount of memory used by VASP on root node   110661. kBytes
========================================================================

   base      :      30000. kBytes
   nonlr-proj:       7130. kBytes
   fftplans  :       6066. kBytes
   grid      :       9092. kBytes
   one-center:        248. kBytes
   wavefun   :      58125. kBytes
 
     INWAV:  cpu time    0.0000: real time    0.0000
 Broyden mixing: mesh for mixing (old mesh)
   NGX = 45   NGY = 45   NGZ = 45
  (NGX  =140   NGY  =140   NGZ  =140)
  gives a total of  91125 points

 initial charge density was supplied:
 charge density of overlapping atoms calculated
 number of electron     896.0000000 magnetization 
 keeping initial charge density in first step


--------------------------------------------------------------------------------------------------------


 Maximum index for non-local projection operator          576
 Maximum index for augmentation-charges          437 (set IRDMAX)


--------------------------------------------------------------------------------------------------------


 First call to EWALD:  gamma=   0.145
 Maximum number of real-space cells 3x 3x 3
 Maximum number of reciprocal cells 3x 3x 3

 FEWALD executed in parallel
    FEWALD:  cpu time    0.0030: real time    0.0033


----------------------------------------- Iteration    1(   1)  ---------------------------------------


    POTLOK:  cpu time    0.0280: real time    0.0289
    SETDIJ:  cpu time    0.0120: real time    0.0135
     EDDAV:  cpu time   21.5697: real time   21.5980
       DOS:  cpu time    0.0020: real time    0.0149
    --------------------------------------------
      LOOP:  cpu time   21.6147: real time   21.7102

 eigenvalue-minimisations  :  5390
 total energy-change (2. order) : 0.1551461E+05  (-0.2871973E+05)
 number of electron     896.0000000 magnetization 
 augmentation part      896.0000000 magnetization 

 Free energy of the ion-electron system (eV)
  ---------------------------------------------------
  alpha Z        PSCENC =      4115.67976023
  Ewald energy   TEWEN  =    -80143.61051375
  -Hartree energ DENC   =    -51809.73168447
  -exchange      EXHF   =         0.00000000
  -V(xc)+E(xc)   XCENC  =      4056.08858965
  PAW double counting   =    118064.89290689  -146701.77456948
  entropy T*S    EENTRO =        -0.00000551
  eigenvalues    EBANDS =      -217.67748256
  atomic energy  EATOM  =    168150.74136308
  Solvation  Ediel_sol  =         0.00000000
  ---------------------------------------------------
  free energy    TOTEN  =     15514.60836408 eV

  energy without entropy =    15514.60836959  energy(sigma->0) =    15514.60836683


--------------------------------------------------------------------------------------------------------




----------------------------------------- Iteration    1(   2)  ---------------------------------------


     EDDAV:  cpu time   21.3408: real time   21.3948
       DOS:  cpu time    0.0010: real time    0.0013
    --------------------------------------------
      LOOP:  cpu time   21.3438: real time   21.4017

 eigenvalue-minimisations  :  4536
 total energy-change (2. order) :-0.1170045E+05  (-0.1055451E+05)
 number of electron     896.0000000 magnetization 
 augmentation part      896.0000000 magnetization 

 Free energy of the ion-electron system (eV)
  ---------------------------------------------------
  alpha Z        PSCENC =      4115.67976023
  Ewald energy   TEWEN  =    -80143.61051375
  -Hartree energ DENC   =    -51809.73168447
  -exchange      EXHF   =         0.00000000
  -V(xc)+E(xc)   XCENC  =      4056.08858965
  PAW double counting   =    118064.89290689  -146701.77456948
  entropy T*S    EENTRO =        -0.00093822
  eigenvalues    EBANDS =    -11918.12500704
  atomic energy  EATOM  =    168150.74136308
  Solvation  Ediel_sol  =         0.00000000
  ---------------------------------------------------
  free energy    TOTEN  =      3814.15990688 eV

  energy without entropy =     3814.16084510  energy(sigma->0) =     3814.16037599


--------------------------------------------------------------------------------------------------------




----------------------------------------- Iteration    1(   3)  ---------------------------------------


     EDDAV:  cpu time   20.5539: real time   20.5599
       DOS:  cpu time    0.0010: real time    0.0013
    --------------------------------------------
      LOOP:  cpu time   20.5569: real time   20.5660

 eigenvalue-minimisations  :  5040
 total energy-change (2. order) :-0.3418223E+04  (-0.3245452E+04)
 number of electron     896.0000000 magnetization 
 augmentation part      896.0000000 magnetization 

 Free energy of the ion-electron system (eV)
  ---------------------------------------------------
  alpha Z        PSCENC =      4115.67976023
  Ewald energy   TEWEN  =    -80143.61051375
  -Hartree energ DENC   =    -51809.73168447
  -exchange      EXHF   =         0.00000000
  -V(xc)+E(xc)   XCENC  =      4056.08858965
  PAW double counting   =    118064.89290689  -146701.77456948
  entropy T*S    EENTRO =        -0.00193123
  eigenvalues    EBANDS =    -15336.34673940
  atomic energy  EATOM  =    168150.74136308
  Solvation  Ediel_sol  =         0.00000000
  ---------------------------------------------------
  free energy    TOTEN  =       395.93718152 eV

  energy without entropy =      395.93911274  energy(sigma->0) =      395.93814713


--------------------------------------------------------------------------------------------------------




----------------------------------------- Iteration    1(   4)  ---------------------------------------


     EDDAV:  cpu time   21.5867: real time   21.5896
       DOS:  cpu time    0.0000: real time    0.0004
    --------------------------------------------
      LOOP:  cpu time   21.5897: real time   21.5956

 eigenvalue-minimisations  :  5362
 total energy-change (2. order) :-0.6174571E+03  (-0.5661693E+03)
 number of electron     896.0000000 magnetization 
 augmentation part      896.0000000 magnetization 

 Free energy of the ion-electron system (eV)
  ---------------------------------------------------
  alpha Z        PSCENC =      4115.67976023
  Ewald energy   TEWEN  =    -80143.61051375
  -Hartree energ DENC   =    -51809.73168447
  -exchange      EXHF   =         0.00000000
  -V(xc)+E(xc)   XCENC  =      4056.08858965
  PAW double counting   =    118064.89290689  -146701.77456948
  entropy T*S    EENTRO =        -0.00000000
  eigenvalues    EBANDS =    -15953.80575404
  atomic energy  EATOM  =    168150.74136308
  Solvation  Ediel_sol  =         0.00000000
  ---------------------------------------------------
  free energy    TOTEN  =      -221.51990189 eV

  energy without entropy =     -221.51990189  energy(sigma->0) =     -221.51990189


--------------------------------------------------------------------------------------------------------




----------------------------------------- Iteration    1(   5)  ---------------------------------------


     EDDAV:  cpu time   21.7717: real time   21.7928
       DOS:  cpu time    0.0000: real time    0.0012
    CHARGE:  cpu time    0.8699: real time    0.8700
    MIXING:  cpu time    0.0040: real time    0.0052
    --------------------------------------------
      LOOP:  cpu time   22.6496: real time   22.6751

 eigenvalue-minimisations  :  5404
 total energy-change (2. order) :-0.7225923E+02  (-0.7000565E+02)
 number of electron     895.9997026 magnetization 
 augmentation part      543.1309519 magnetization 

 Broyden mixing:
  rms(total) = 0.18116E+01    rms(broyden)= 0.18116E+01
  rms(prec ) = 0.20275E+01
  weight for this iteration     100.00

 Free energy of the ion-electron system (eV)
  ---------------------------------------------------
  alpha Z        PSCENC =      4115.67976023
  Ewald energy   TEWEN  =    -80143.61051375
  -Hartree energ DENC   =    -51809.73168447
  -exchange      EXHF   =         0.00000000
  -V(xc)+E(xc)   XCENC  =      4056.08858965
  PAW double counting   =    118064.89290689  -146701.77456948
  entropy T*S    EENTRO =        -0.00024702
  eigenvalues    EBANDS =    -16026.06473496
  atomic energy  EATOM  =    168150.74136308
  Solvation  Ediel_sol  =         0.00000000
  ---------------------------------------------------
  free energy    TOTEN  =      -293.77912983 eV

  energy without entropy =     -293.77888281  energy(sigma->0) =     -293.77900632


--------------------------------------------------------------------------------------------------------




----------------------------------------- Iteration    1(   6)  ---------------------------------------


    POTLOK:  cpu time    0.0260: real time    0.0264
    SETDIJ:  cpu time    0.0100: real time    0.0103
     EDDAV:  cpu time   22.5916: real time   22.6202
       DOS:  cpu time    0.0010: real time    0.0012
    CHARGE:  cpu time    0.8689: real time    0.8693
    MIXING:  cpu time    0.0040: real time    0.0037
    --------------------------------------------
      LOOP:  cpu time   23.5034: real time   23.5365

 eigenvalue-minimisations  :  5684
 total energy-change (2. order) : 0.3309365E+00  (-0.3908901E+01)
 number of electron     895.9997020 magnetization 
 augmentation part      543.3193614 magnetization 

 Broyden mixing:
  rms(total) = 0.78558E+00    rms(broyden)= 0.78558E+00
  rms(prec ) = 0.91946E+00
  weight for this iteration     100.00

 eigenvalues of (default mixing * dielectric matrix)
  average eigenvalue GAMMA=   1.6096
  1.6096

 Free energy of the ion-electron system (eV)
  ---------------------------------------------------
  alpha Z        PSCENC =      4115.67976023
  Ewald energy   TEWEN  =    -80143.61051375
  -Hartree energ DENC   =    -51735.23609868
  -exchange      EXHF   =         0.00000000
  -V(xc)+E(xc)   XCENC  =      4050.57078921
  PAW double counting   =    123707.52663293  -152337.53108539
  entropy T*S    EENTRO =        -0.00057123
  eigenvalues    EBANDS =    -16101.58846977
  atomic energy  EATOM  =    168150.74136308
  Solvation  Ediel_sol  =         0.00000000
  ---------------------------------------------------
  free energy    TOTEN  =      -293.44819338 eV

  energy without entropy =     -293.44762215  energy(sigma->0) =     -293.44790776


--------------------------------------------------------------------------------------------------------




----------------------------------------- Iteration    1(   7)  ---------------------------------------


    POTLOK:  cpu time    0.0270: real time    0.0266
    SETDIJ:  cpu time    0.0100: real time    0.0103
     EDDAV:  cpu time   23.1025: real time   23.1300
       DOS:  cpu time    0.0010: real time    0.0013
    CHARGE:  cpu time    0.8659: real time    0.8656
    MIXING:  cpu time    0.0030: real time    0.0032
    --------------------------------------------
      LOOP:  cpu time   24.0113: real time   24.0422

 eigenvalue-minimisations  :  5838
 total energy-change (2. order) : 0.7256472E+00  (-0.5649694E+00)
 number of electron     895.9997024 magnetization 
 augmentation part      543.2417551 magnetization 

 Broyden mixing:
  rms(total) = 0.22512E+00    rms(broyden)= 0.22512E+00
  rms(prec ) = 0.26501E+00
  weight for this iteration     100.00

 eigenvalues of (default mixing * dielectric matrix)
  average eigenvalue GAMMA=   1.5096
  1.0645  1.9547

 Free energy of the ion-electron system (eV)
  ---------------------------------------------------
  alpha Z        PSCENC =      4115.67976023
  Ewald energy   TEWEN  =    -80143.61051375
  -Hartree energ DENC   =    -51770.53746561
  -exchange      EXHF   =         0.00000000
  -V(xc)+E(xc)   XCENC  =      4049.84269093
  PAW double counting   =    128062.02875934  -156751.46253270
  entropy T*S    EENTRO =        -0.00057133
  eigenvalues    EBANDS =    -16005.40403637
  atomic energy  EATOM  =    168150.74136308
  Solvation  Ediel_sol  =         0.00000000
  ---------------------------------------------------
  free energy    TOTEN  =      -292.72254619 eV

  energy without entropy =     -292.72197486  energy(sigma->0) =     -292.72226053


--------------------------------------------------------------------------------------------------------




----------------------------------------- Iteration    1(   8)  ---------------------------------------


    POTLOK:  cpu time    0.0260: real time    0.0265
    SETDIJ:  cpu time    0.0100: real time    0.0103
     EDDAV:  cpu time   20.6289: real time   20.6398
       DOS:  cpu time    0.0020: real time    0.0012
    CHARGE:  cpu time    0.8639: real time    0.8647
    MIXING:  cpu time    0.0040: real time    0.0033
    --------------------------------------------
      LOOP:  cpu time   21.5367: real time   21.6324

 eigenvalue-minimisations  :  5068
 total energy-change (2. order) : 0.4136740E-01  (-0.3956131E-01)
 number of electron     895.9997026 magnetization 
 augmentation part      543.1950209 magnetization 

 Broyden mixing:
  rms(total) = 0.11424E+00    rms(broyden)= 0.11424E+00
  rms(prec ) = 0.13185E+00
  weight for this iteration     100.00

 eigenvalues of (default mixing * dielectric matrix)
  average eigenvalue GAMMA=   1.7303
  1.0540  1.5191  2.6178

 Free energy of the ion-electron system (eV)
  ---------------------------------------------------
  alpha Z        PSCENC =      4115.67976023
  Ewald energy   TEWEN  =    -80143.61051375
  -Hartree energ DENC   =    -51765.02639789
  -exchange      EXHF   =         0.00000000
  -V(xc)+E(xc)   XCENC  =      4049.20983822
  PAW double counting   =    129052.06821659  -157746.51305795
  entropy T*S    EENTRO =        -0.00057134
  eigenvalues    EBANDS =    -16005.22981597
  atomic energy  EATOM  =    168150.74136308
  Solvation  Ediel_sol  =         0.00000000
  ---------------------------------------------------
  free energy    TOTEN  =      -292.68117879 eV

  energy without entropy =     -292.68060745  energy(sigma->0) =     -292.68089312


--------------------------------------------------------------------------------------------------------




----------------------------------------- Iteration    1(   9)  ---------------------------------------


    POTLOK:  cpu time    0.0260: real time    0.0266
    SETDIJ:  cpu time    0.0100: real time    0.0101
     EDDAV:  cpu time   22.3186: real time   22.3555
       DOS:  cpu time    0.0010: real time    0.0012
    CHARGE:  cpu time    0.8689: real time    0.8690
    MIXING:  cpu time    0.0040: real time    0.0035
    --------------------------------------------
      LOOP:  cpu time   23.2315: real time   23.2712

 eigenvalue-minimisations  :  5586
 total energy-change (2. order) : 0.6590537E-02  (-0.7125048E-02)
 number of electron     895.9997025 magnetization 
 augmentation part      543.2197216 magnetization 

 Broyden mixing:
  rms(total) = 0.35277E-01    rms(broyden)= 0.35277E-01
  rms(prec ) = 0.36871E-01
  weight for this iteration     100.00

 eigenvalues of (default mixing * dielectric matrix)
  average eigenvalue GAMMA=   1.6357
  1.0670  1.0670  2.3017  2.1070

 Free energy of the ion-electron system (eV)
  ---------------------------------------------------
  alpha Z        PSCENC =      4115.67976023
  Ewald energy   TEWEN  =    -80143.61051375
  -Hartree energ DENC   =    -51757.59086165
  -exchange      EXHF   =         0.00000000
  -V(xc)+E(xc)   XCENC  =      4048.59457313
  PAW double counting   =    129804.85575267  -158499.66422871
  entropy T*S    EENTRO =        -0.00057134
  eigenvalues    EBANDS =    -16011.67986191
  atomic energy  EATOM  =    168150.74136308
  Solvation  Ediel_sol  =         0.00000000
  ---------------------------------------------------
  free energy    TOTEN  =      -292.67458825 eV

  energy without entropy =     -292.67401691  energy(sigma->0) =     -292.67430258


--------------------------------------------------------------------------------------------------------




----------------------------------------- Iteration    1(  10)  ---------------------------------------


    POTLOK:  cpu time    0.0260: real time    0.0265
    SETDIJ:  cpu time    0.0100: real time    0.0102
     EDDAV:  cpu time   21.3917: real time   21.4117
       DOS:  cpu time    0.0010: real time    0.0012
    CHARGE:  cpu time    0.8659: real time    0.8646
    MIXING:  cpu time    0.0040: real time    0.0039
    --------------------------------------------
      LOOP:  cpu time   22.3006: real time   22.4068

 eigenvalue-minimisations  :  5299
 total energy-change (2. order) :-0.4868249E-03  (-0.7549995E-03)
 number of electron     895.9997025 magnetization 
 augmentation part      543.2041612 magnetization 

 Broyden mixing:
  rms(total) = 0.10884E-01    rms(broyden)= 0.10884E-01
  rms(prec ) = 0.13669E-01
  weight for this iteration     100.00

 eigenvalues of (default mixing * dielectric matrix)
  average eigenvalue GAMMA=   1.7067
  2.5500  2.5500  1.3744  1.0836  0.9756

 Free energy of the ion-electron system (eV)
  ---------------------------------------------------
  alpha Z        PSCENC =      4115.67976023
  Ewald energy   TEWEN  =    -80143.61051375
  -Hartree energ DENC   =    -51761.18178630
  -exchange      EXHF   =         0.00000000
  -V(xc)+E(xc)   XCENC  =      4048.78219811
  PAW double counting   =    129597.27999107  -158293.85344812
  entropy T*S    EENTRO =        -0.00057134
  eigenvalues    EBANDS =    -16006.51206804
  atomic energy  EATOM  =    168150.74136308
  Solvation  Ediel_sol  =         0.00000000
  ---------------------------------------------------
  free energy    TOTEN  =      -292.67507508 eV

  energy without entropy =     -292.67450374  energy(sigma->0) =     -292.67478941


--------------------------------------------------------------------------------------------------------




----------------------------------------- Iteration    1(  11)  ---------------------------------------


    POTLOK:  cpu time    0.0240: real time    0.0266
    SETDIJ:  cpu time    0.0110: real time    0.0105
     EDDAV:  cpu time   23.2655: real time   23.2828
       DOS:  cpu time    0.0010: real time    0.0013
    CHARGE:  cpu time    0.8749: real time    0.8745
    MIXING:  cpu time    0.0040: real time    0.0039
    --------------------------------------------
      LOOP:  cpu time   24.1833: real time   24.2049

 eigenvalue-minimisations  :  5880
 total energy-change (2. order) : 0.1206403E-04  (-0.1109363E-03)
 number of electron     895.9997025 magnetization 
 augmentation part      543.2082700 magnetization 

 Broyden mixing:
  rms(total) = 0.37383E-02    rms(broyden)= 0.37383E-02
  rms(prec ) = 0.39921E-02
  weight for this iteration     100.00

 eigenvalues of (default mixing * dielectric matrix)
  average eigenvalue GAMMA=   1.6061
  2.7006  1.8944  1.8944  1.1259  1.1259  0.8952

 Free energy of the ion-electron system (eV)
  ---------------------------------------------------
  alpha Z        PSCENC =      4115.67976023
  Ewald energy   TEWEN  =    -80143.61051375
  -Hartree energ DENC   =    -51764.35391173
  -exchange      EXHF   =         0.00000000
  -V(xc)+E(xc)   XCENC  =      4048.88284741
  PAW double counting   =    129579.03180058  -158276.45438399
  entropy T*S    EENTRO =        -0.00057134
  eigenvalues    EBANDS =    -16002.59145350
  atomic energy  EATOM  =    168150.74136308
  Solvation  Ediel_sol  =         0.00000000
  ---------------------------------------------------
  free energy    TOTEN  =      -292.67506302 eV

  energy without entropy =     -292.67449167  energy(sigma->0) =     -292.67477734


--------------------------------------------------------------------------------------------------------




----------------------------------------- Iteration    1(  12)  ---------------------------------------


    POTLOK:  cpu time    0.0260: real time    0.0264
    SETDIJ:  cpu time    0.0100: real time    0.0104
     EDDAV:  cpu time   21.6867: real time   21.7002
       DOS:  cpu time    0.0010: real time    0.0011
    CHARGE:  cpu time    0.8679: real time    0.8678
    MIXING:  cpu time    0.0040: real time    0.0041
    --------------------------------------------
      LOOP:  cpu time   22.5986: real time   22.6151

 eigenvalue-minimisations  :  5390
 total energy-change (2. order) : 0.4528265E-05  (-0.2114927E-04)
 number of electron     895.9997025 magnetization 
 augmentation part      543.2107275 magnetization 

 Broyden mixing:
  rms(total) = 0.12803E-02    rms(broyden)= 0.12803E-02
  rms(prec ) = 0.15483E-02
  weight for this iteration     100.00

 eigenvalues of (default mixing * dielectric matrix)
  average eigenvalue GAMMA=   1.7533
  2.8425  2.8425  1.8924  0.9976  0.9976  1.3502  1.3502

 Free energy of the ion-electron system (eV)
  ---------------------------------------------------
  alpha Z        PSCENC =      4115.67976023
  Ewald energy   TEWEN  =    -80143.61051375
  -Hartree energ DENC   =    -51764.35096944
  -exchange      EXHF   =         0.00000000
  -V(xc)+E(xc)   XCENC  =      4048.87443134
  PAW double counting   =    129597.95194752  -158294.87647226
  entropy T*S    EENTRO =        -0.00057134
  eigenvalues    EBANDS =    -16003.08403386
  atomic energy  EATOM  =    168150.74136308
  Solvation  Ediel_sol  =         0.00000000
  ---------------------------------------------------
  free energy    TOTEN  =      -292.67505849 eV

  energy without entropy =     -292.67448715  energy(sigma->0) =     -292.67477282


--------------------------------------------------------------------------------------------------------




----------------------------------------- Iteration    1(  13)  ---------------------------------------


    POTLOK:  cpu time    0.0260: real time    0.0265
    SETDIJ:  cpu time    0.0100: real time    0.0105
     EDDAV:  cpu time   21.5617: real time   21.5627
       DOS:  cpu time    0.0010: real time    0.0012
    CHARGE:  cpu time    0.8609: real time    0.8607
    MIXING:  cpu time    0.0050: real time    0.0043
    --------------------------------------------
      LOOP:  cpu time   22.4656: real time   22.4709

 eigenvalue-minimisations  :  5334
 total energy-change (2. order) :-0.6792427E-05  (-0.1791300E-05)
 number of electron     895.9997025 magnetization 
 augmentation part      543.2116649 magnetization 

 Broyden mixing:
  rms(total) = 0.37875E-03    rms(broyden)= 0.37874E-03
  rms(prec ) = 0.40967E-03
  weight for this iteration     100.00

 eigenvalues of (default mixing * dielectric matrix)
  average eigenvalue GAMMA=   1.6591
  3.0084  2.5746  1.7283  1.7283  1.2804  1.0525  1.0001  0.9003

 Free energy of the ion-electron system (eV)
  ---------------------------------------------------
  alpha Z        PSCENC =      4115.67976023
  Ewald energy   TEWEN  =    -80143.61051375
  -Hartree energ DENC   =    -51764.74384457
  -exchange      EXHF   =         0.00000000
  -V(xc)+E(xc)   XCENC  =      4048.88742497
  PAW double counting   =    129589.63102409  -158286.19211825
  entropy T*S    EENTRO =        -0.00057134
  eigenvalues    EBANDS =    -16003.06758972
  atomic energy  EATOM  =    168150.74136308
  Solvation  Ediel_sol  =         0.00000000
  ---------------------------------------------------
  free energy    TOTEN  =      -292.67506528 eV

  energy without entropy =     -292.67449394  energy(sigma->0) =     -292.67477961


--------------------------------------------------------------------------------------------------------




----------------------------------------- Iteration    1(  14)  ---------------------------------------


    POTLOK:  cpu time    0.0260: real time    0.0265
    SETDIJ:  cpu time    0.0100: real time    0.0103
     EDDAV:  cpu time   14.3688: real time   14.3718
       DOS:  cpu time    0.0020: real time    0.0013
    --------------------------------------------
      LOOP:  cpu time   14.4088: real time   14.4150

 eigenvalue-minimisations  :  3066
 total energy-change (2. order) : 0.1123408E-06  (-0.1492050E-06)
 number of electron     895.9997025 magnetization 
 augmentation part      543.2116649 magnetization 

 Free energy of the ion-electron system (eV)
  ---------------------------------------------------
  alpha Z        PSCENC =      4115.67976023
  Ewald energy   TEWEN  =    -80143.61051375
  -Hartree energ DENC   =    -51764.72547313
  -exchange      EXHF   =         0.00000000
  -V(xc)+E(xc)   XCENC  =      4048.88645324
  PAW double counting   =    129591.79692655  -158288.44397025
  entropy T*S    EENTRO =        -0.00057134
  eigenvalues    EBANDS =    -16002.99903979
  atomic energy  EATOM  =    168150.74136308
  Solvation  Ediel_sol  =         0.00000000
  ---------------------------------------------------
  free energy    TOTEN  =      -292.67506517 eV

  energy without entropy =     -292.67449383  energy(sigma->0) =     -292.67477950


--------------------------------------------------------------------------------------------------------




 average (electrostatic) potential at core
  the test charge radii are     1.0314  0.9962
  (the norm of the test charge is              1.0000)
       1 -69.8560       2 -69.8560       3 -69.8560       4 -69.8560       5 -69.8560
       6 -69.8560       7 -69.8560       8 -69.8560       9 -69.8560      10 -69.8560
      11 -69.8560      12 -69.8560      13 -69.8560      14 -69.8560      15 -69.8560
      16 -69.8560      17 -69.8560      18 -69.8560      19 -69.8560      20 -69.8560
      21 -69.8560      22 -69.8560      23 -69.8560      24 -69.8560      25 -69.8560
      26 -69.8560      27 -69.8560      28 -69.8560      29 -69.8560      30 -69.8560
      31 -69.8560      32 -69.8560      33 -41.3114      34 -41.3114      35 -41.3114
      36 -41.3114      37 -41.3114      38 -41.3114      39 -41.3114      40 -41.3114
      41 -41.3114      42 -41.3114      43 -41.3114      44 -41.3114      45 -41.3114
      46 -41.3114      47 -41.3114      48 -41.3114      49 -41.3114      50 -41.3114
      51 -41.3114      52 -41.3114      53 -41.3114      54 -41.3114      55 -41.3114
      56 -41.3114      57 -41.3114      58 -41.3114      59 -41.3114      60 -41.3114
      61 -41.3114      62 -41.3114      63 -41.3114      64 -41.3114
 
 
 
 E-fermi :   1.2625     XC(G=0):  -9.2774     alpha+bet : -7.1701


 k-point     1 :       0.0000    0.0000    0.0000
  band No.  band energies     occupation 
      1     -33.9006      2.00000
      2     -33.9005      2.00000
      3     -33.9005      2.00000
      4     -33.9004      2.00000
      5     -33.9004      2.00000
      6     -33.9004      2.00000
      7     -33.9004      2.00000
      8     -33.9004      2.00000
      9     -33.9004      2.00000
     10     -33.9003      2.00000
     11     -33.9003      2.00000
     12     -33.9003      2.00000
     13     -33.9002      2.00000
     14     -33.9002      2.00000
     15     -33.9002      2.00000
     16     -33.9002      2.00000
     17     -33.9002      2.00000
     18     -33.9002      2.00000
     19     -33.9002      2.00000
     20     -33.9002      2.00000
     21     -33.9002      2.00000
     22     -33.9002      2.00000
     23     -33.9002      2.00000
     24     -33.9002      2.00000
     25     -33.9002      2.00000
     26     -33.9001      2.00000
     27     -33.9001      2.00000
     28     -33.9001      2.00000
     29     -33.9001      2.00000
     30     -33.9001      2.00000
     31     -33.9001      2.00000
     32     -33.9001      2.00000
     33     -33.9001      2.00000
     34     -33.9001      2.00000
     35     -33.9000      2.00000
     36     -33.9000      2.00000
     37     -33.9000      2.00000
     38     -33.9000      2.00000
     39     -33.9000      2.00000
     40     -33.9000      2.00000
     41     -33.9000      2.00000
     42     -33.9000      2.00000
     43     -33.9000      2.00000
     44     -33.9000      2.00000
     45     -33.9000      2.00000
     46     -33.9000      2.00000
     47     -33.9000      2.00000
     48     -33.9000      2.00000
     49     -33.9000      2.00000
     50     -33.9000      2.00000
     51     -33.9000      2.00000
     52     -33.9000      2.00000
     53     -33.9000      2.00000
     54     -33.9000      2.00000
     55     -33.9000      2.00000
     56     -33.9000      2.00000
     57     -33.9000      2.00000
     58     -33.9000      2.00000
     59     -33.9000      2.00000
     60     -33.9000      2.00000
     61     -33.9000      2.00000
     62     -33.9000      2.00000
     63     -33.9000      2.00000
     64     -33.9000      2.00000
     65     -33.9000      2.00000
     66     -33.9000      2.00000
     67     -33.9000      2.00000
     68     -33.9000      2.00000
     69     -33.9000      2.00000
     70     -33.9000      2.00000
     71     -33.9000      2.00000
     72     -33.9000      2.00000
     73     -33.8999      2.00000
     74     -33.8999      2.00000
     75     -33.8999      2.00000
     76     -33.8999      2.00000
     77     -33.8999      2.00000
     78     -33.8999      2.00000
     79     -33.8999      2.00000
     80     -33.8999      2.00000
     81     -33.8999      2.00000
     82     -33.8999      2.00000
     83     -33.8999      2.00000
     84     -33.8999      2.00000
     85     -33.8997      2.00000
     86     -33.8997      2.00000
     87     -33.8997      2.00000
     88     -33.8996      2.00000
     89     -33.8996      2.00000
     90     -33.8996      2.00000
     91     -33.8996      2.00000
     92     -33.8996      2.00000
     93     -33.8996      2.00000
     94     -33.8996      2.00000
     95     -33.8996      2.00000
     96     -33.8996      2.00000
     97     -33.8959      2.00000
     98     -33.8959      2.00000
     99     -33.8959      2.00000
    100     -33.8958      2.00000
    101     -33.8958      2.00000
    102     -33.8958      2.00000
    103     -33.8958      2.00000
    104     -33.8958      2.00000
    105     -33.8958      2.00000
    106     -33.8958      2.00000
    107     -33.8958      2.00000
    108     -33.8958      2.00000
    109     -33.8958      2.00000
    110     -33.8958      2.00000
    111     -33.8958      2.00000
    112     -33.8958      2.00000
    113     -33.8958      2.00000
    114     -33.8957      2.00000
    115     -33.8957      2.00000
    116     -33.8957      2.00000
    117     -33.8957      2.00000
    118     -33.8957      2.00000
    119     -33.8957      2.00000
    120     -33.8957      2.00000
    121     -33.8957      2.00000
    122     -33.8957      2.00000
    123     -33.8957      2.00000
    124     -33.8957      2.00000
    125     -33.8957      2.00000
    126     -33.8957      2.00000
    127     -33.8957      2.00000
    128     -33.8957      2.00000
    129     -33.8957      2.00000
    130     -33.8957      2.00000
    131     -33.8957      2.00000
    132     -33.8957      2.00000
    133     -33.8957      2.00000
    134     -33.8957      2.00000
    135     -33.8957      2.00000
    136     -33.8957      2.00000
    137     -33.8957      2.00000
    138     -33.8957      2.00000
    139     -33.8957      2.00000
    140     -33.8957      2.00000
    141     -33.8957      2.00000
    142     -33.8957      2.00000
    143     -33.8957      2.00000
    144     -33.8957      2.00000
    145     -33.8957      2.00000
    146     -33.8956      2.00000
    147     -33.8956      2.00000
    148     -33.8956      2.00000
    149     -33.8956      2.00000
    150     -33.8956      2.00000
    151     -33.8956      2.00000
    152     -33.8956      2.00000
    153     -33.8956      2.00000
    154     -33.8956      2.00000
    155     -33.8956      2.00000
    156     -33.8956      2.00000
    157     -33.8956      2.00000
    158     -33.8955      2.00000
    159     -33.8955      2.00000
    160     -33.8955      2.00000
    161     -13.4392      2.00000
    162     -13.4392      2.00000
    163     -13.4392      2.00000
    164     -13.4324      2.00000
    165     -13.4324      2.00000
    166     -13.4324      2.00000
    167     -13.4324      2.00000
    168     -13.4324      2.00000
    169     -13.4324      2.00000
    170     -13.4219      2.00000
    171     -13.4219      2.00000
    172     -13.4219      2.00000
    173     -13.4219      2.00000
    174     -13.4216      2.00000
    175     -13.4216      2.00000
    176     -13.4216      2.00000
    177     -13.4216      2.00000
    178     -13.4216      2.00000
    179     -13.4216      2.00000
    180     -13.4216      2.00000
    181     -13.4216      2.00000
    182     -13.4216      2.00000
    183     -13.4216      2.00000
    184     -13.4216      2.00000
    185     -13.4216      2.00000
    186     -13.4173      2.00000
    187     -13.4173      2.00000
    188     -13.4173      2.00000
    189     -13.4172      2.00000
    190     -13.4172      2.00000
    191     -13.4172      2.00000
    192     -13.3926      2.00000
    193     -13.3926      2.00000
    194     -13.3926      2.00000
    195     -13.3838      2.00000
    196     -13.3838      2.00000
    197     -13.3838      2.00000
    198     -13.3838      2.00000
    199     -13.3838      2.00000
    200     -13.3838      2.00000
    201     -13.3837      2.00000
    202     -13.3837      2.00000
    203     -13.3821      2.00000
    204     -13.3821      2.00000
    205     -13.3821      2.00000
    206     -13.3821      2.00000
    207     -13.3821      2.00000
    208     -13.3821      2.00000
    209     -13.3821      2.00000
    210     -13.3821      2.00000
    211     -13.3821      2.00000
    212     -13.3821      2.00000
    213     -13.3821      2.00000
    214     -13.3821      2.00000
    215     -13.3820      2.00000
    216     -13.3820      2.00000
    217     -13.3820      2.00000
    218     -13.3820      2.00000
    219     -13.3820      2.00000
    220     -13.3820      2.00000
    221     -13.3820      2.00000
    222     -13.3820      2.00000
    223     -13.3820      2.00000
    224     -13.3820      2.00000
    225     -13.3820      2.00000
    226     -13.3820      2.00000
    227     -13.3815      2.00000
    228     -13.3815      2.00000
    229     -13.3815      2.00000
    230     -13.3815      2.00000
    231     -13.3815      2.00000
    232     -13.3815      2.00000
    233     -13.3815      2.00000
    234     -13.3815      2.00000
    235     -13.3815      2.00000
    236     -13.3815      2.00000
    237     -13.3815      2.00000
    238     -13.3815      2.00000
    239     -13.3793      2.00000
    240     -13.3793      2.00000
    241     -13.3793      2.00000
    242     -13.3793      2.00000
    243     -13.3793      2.00000
    244     -13.3793      2.00000
    245     -13.3724      2.00000
    246     -13.3724      2.00000
    247     -13.3724      2.00000
    248     -13.3723      2.00000
    249     -13.3723      2.00000
    250     -13.3723      2.00000
    251     -13.3711      2.00000
    252     -13.3711      2.00000
    253     -13.3711      2.00000
    254     -13.3711      2.00000
    255     -13.3711      2.00000
    256     -13.3711      2.00000
    257     -13.3643      2.00000
    258     -13.3643      2.00000
    259     -13.3643      2.00000
    260     -13.3592      2.00000
    261     -13.3592      2.00000
    262     -13.3592      2.00000
    263     -13.3592      2.00000
    264     -13.3592      2.00000
    265     -13.3592      2.00000
    266     -13.3591      2.00000
    267     -13.3591      2.00000
    268     -13.3591      2.00000
    269     -13.3591      2.00000
    270     -13.3591      2.00000
    271     -13.3591      2.00000
    272     -13.3554      2.00000
    273     -13.3554      2.00000
    274     -13.3554      2.00000
    275     -13.3554      2.00000
    276     -13.3554      2.00000
    277     -13.3554      2.00000
    278     -13.3554      2.00000
    279     -13.3554      2.00000
    280     -13.3554      2.00000
    281     -13.3553      2.00000
    282     -13.3553      2.00000
    283     -13.3553      2.00000
    284     -13.3548      2.00000
    285     -13.3548      2.00000
    286     -13.3544      2.00000
    287     -13.3544      2.00000
    288     -13.3544      2.00000
    289     -13.3544      2.00000
    290     -13.3544      2.00000
    291     -13.3544      2.00000
    292     -13.3544      2.00000
    293     -13.3544      2.00000
    294     -13.3544      2.00000
    295     -13.3544      2.00000
    296     -13.3544      2.00000
    297     -13.3544      2.00000
    298     -13.3532      2.00000
    299     -13.3532      2.00000
    300     -13.3532      2.00000
    301     -13.3531      2.00000
    302     -13.3531      2.00000
    303     -13.3531      2.00000
    304     -13.3531      2.00000
    305     -13.3531      2.00000
    306     -13.3527      2.00000
    307     -13.3527      2.00000
    308     -13.3527      2.00000
    309     -13.3526      2.00000
    310     -13.3526      2.00000
    311     -13.3526      2.00000
    312     -13.3520      2.00000
    313     -13.3520      2.00000
    314     -13.3520      2.00000
    315     -13.3519      2.00000
    316     -13.3519      2.00000
    317     -13.3519      2.00000
    318     -13.3492      2.00000
    319     -13.3490      2.00000
    320     -13.3490      2.00000
    321     -10.1309      2.00000
    322      -9.4809      2.00000
    323      -9.4809      2.00000
    324      -9.4809      2.00000
    325      -9.4809      2.00000
    326      -9.4809      2.00000
    327      -9.4809      2.00000
    328      -9.0234      2.00000
    329      -9.0234      2.00000
    330      -9.0234      2.00000
    331      -9.0234      2.00000
    332      -9.0234      2.00000
    333      -9.0234      2.00000
    334      -9.0234      2.00000
    335      -9.0234      2.00000
    336      -9.0234      2.00000
    337      -9.0234      2.00000
    338      -9.0234      2.00000
    339      -9.0234      2.00000
    340      -8.9717      2.00000
    341      -8.9717      2.00000
    342      -8.9717      2.00000
    343      -8.9717      2.00000
    344      -8.5002      2.00000
    345      -8.5002      2.00000
    346      -8.5002      2.00000
    347      -8.4782      2.00000
    348      -8.4782      2.00000
    349      -8.4782      2.00000
    350      -8.4782      2.00000
    351      -8.4782      2.00000
    352      -8.4782      2.00000
    353      -4.7064      2.00000
    354      -4.7064      2.00000
    355      -4.7064      2.00000
    356      -4.5957      2.00000
    357      -4.5957      2.00000
    358      -4.5957      2.00000
    359      -4.5957      2.00000
    360      -4.5957      2.00000
    361      -4.5957      2.00000
    362      -4.4138      2.00000
    363      -4.4137      2.00000
    364      -4.4137      2.00000
    365      -4.4137      2.00000
    366      -3.8776      2.00000
    367      -3.8776      2.00000
    368      -3.8776      2.00000
    369      -3.8775      2.00000
    370      -3.8775      2.00000
    371      -3.8775      2.00000
    372      -3.8775      2.00000
    373      -3.8775      2.00000
    374      -3.8775      2.00000
    375      -3.8775      2.00000
    376      -3.8775      2.00000
    377      -3.8775      2.00000
    378      -2.8160      2.00000
    379      -2.8160      2.00000
    380      -2.8160      2.00000
    381      -2.8160      2.00000
    382      -2.8160      2.00000
    383      -2.8160      2.00000
    384      -1.3740      2.00000
    385      -1.3740      2.00000
    386      -1.3740      2.00000
    387      -1.3740      2.00000
    388      -1.3740      2.00000
    389      -1.3740      2.00000
    390      -1.2622      2.00000
    391      -1.2622      2.00000
    392      -1.2622      2.00000
    393      -1.2622      2.00000
    394      -1.2622      2.00000
    395      -1.2622      2.00000
    396      -1.2622      2.00000
    397      -1.2622      2.00000
    398      -1.2622      2.00000
    399      -1.2621      2.00000
    400      -1.2621      2.00000
    401      -1.2621      2.00000
    402      -1.1957      2.00000
    403      -1.1957      2.00000
    404      -1.1957      2.00000
    405      -1.1957      2.00000
    406      -1.1957      2.00000
    407      -1.1957      2.00000
    408      -0.7383      2.00000
    409      -0.7383      2.00000
    410      -0.7383      2.00000
    411      -0.7383      2.00000
    412      -0.7383      2.00000
    413      -0.7383      2.00000
    414       0.0255      2.00000
    415       0.0255      2.00000
    416       0.0255      2.00000
    417       0.0255      2.00000
    418       0.0255      2.00000
    419       0.0255      2.00000
    420       0.0256      2.00000
    421       0.0256      2.00000
    422       0.0256      2.00000
    423       0.0256      2.00000
    424       0.0256      2.00000
    425       0.0256      2.00000
    426       0.0711      2.00000
    427       0.3608      2.00000
    428       0.3608      2.00000
    429       0.3608      2.00000
    430       0.3608      2.00000
    431       0.3608      2.00000
    432       0.3608      2.00000
    433       0.3608      2.00000
    434       0.3608      2.00000
    435       0.3608      2.00000
    436       0.3608      2.00000
    437       0.3608      2.00000
    438       0.3608      2.00000
    439       0.4115      2.00000
    440       0.4115      2.00000
    441       0.4115      2.00000
    442       0.4115      2.00000
    443       0.4115      2.00000
    444       0.4115      2.00000
    445       0.4115      2.00000
    446       0.4115      2.00000
    447       1.2594      1.33333
    448       1.2594      1.33333
    449       1.2594      1.33333
    450       1.5801      0.00000
    451       1.5801      0.00000
    452       1.5801      0.00000
    453       1.5801      0.00000
    454       2.8084      0.00000
    455       2.8084      0.00000
    456       2.8084      0.00000
    457       2.9357      0.00000
    458       2.9357      0.00000
    459       2.9357      0.00000
    460       3.1076      0.00000
    461       3.1076      0.00000
    462       3.1076      0.00000
    463       3.1076      0.00000
    464       3.1076      0.00000
    465       3.1076      0.00000
    466       3.2930      0.00000
    467       3.2930      0.00000
    468       3.2930      0.00000
    469       3.2930      0.00000
    470       3.2930      0.00000
    471       3.2930      0.00000
    472       3.2931      0.00000
    473       3.2931      0.00000
    474       3.2931      0.00000
    475       3.2931      0.00000
    476       3.2931      0.00000
    477       3.2931      0.00000
    478       3.8181      0.00000
    479       3.8181      0.00000
    480       3.8181      0.00000
    481       3.8181      0.00000
    482       3.8181      0.00000
    483       3.8181      0.00000
    484       4.7566      0.00000
    485       4.7566      0.00000
    486       4.7566      0.00000
    487       4.7566      0.00000
    488       4.7566      0.00000
    489       4.7566      0.00000
    490       4.8331      0.00000
    491       4.8331      0.00000
    492       4.8331      0.00000
    493       5.6942      0.00000
    494       5.6942      0.00000
    495       5.6942      0.00000
    496       5.6942      0.00000
    497       5.6942      0.00000
    498       5.6942      0.00000
    499       5.6942      0.00000
    500       5.6942      0.00000
    501       5.7163      0.00000
    502       5.7163      0.00000
    503       5.7163      0.00000
    504       5.7163      0.00000
    505       5.7163      0.00000
    506       5.7164      0.00000
    507       5.8343      0.00000
    508       5.8344      0.00000
    509       5.8345      0.00000
    510       5.8347      0.00000
    511       5.8350      0.00000
    512       5.8357      0.00000
    513       6.1492      0.00000
    514       6.1492      0.00000
    515       6.1492      0.00000
    516       6.1499      0.00000
    517       6.1502      0.00000
    518       6.1512      0.00000
    519       6.1537      0.00000
    520       6.1553      0.00000
    521       6.1590      0.00000
    522       6.1633      0.00000
    523       6.1696      0.00000
[...]
 -0.000  -0.000  -0.000   0.000  -0.000  -0.000  -0.000  -0.000   0.000   0.000   1.493   0.024   0.000  -0.000  -0.000   0.000
  0.000  -0.000  -0.000   0.000  -0.000  -0.000  -0.000  -0.000   0.000  -0.000   0.024   0.001   0.000  -0.000  -0.000   0.000
 -0.000  -0.000  -0.000   0.019  -0.000   0.000  -0.000   0.000   0.152   0.000  -0.000   0.000   0.953   0.000  -0.000   0.014
  0.019   0.000   0.000  -0.000   0.000   0.152  -0.000   0.000  -0.000   0.000  -0.000   0.000   0.000   0.953  -0.000  -0.000
 -0.000   0.019  -0.000  -0.000  -0.000   0.000   0.152   0.000  -0.000   0.000  -0.000  -0.000  -0.000  -0.000   0.953  -0.000
  0.000  -0.000  -0.000   0.001  -0.000   0.000  -0.000  -0.000   0.002  -0.000  -0.000  -0.000   0.014  -0.000  -0.000   0.000
  0.001  -0.000   0.000  -0.000  -0.000   0.002  -0.000   0.000  -0.000  -0.000  -0.000   0.000  -0.000   0.014  -0.000  -0.000
 -0.000   0.001  -0.000  -0.000  -0.000  -0.000   0.002   0.000  -0.000   0.000  -0.000   0.000  -0.000  -0.000   0.014  -0.000


------------------------ aborting loop because EDIFF is reached ----------------------------------------


    CHARGE:  cpu time    0.9629: real time    0.9630
    FORLOC:  cpu time    0.0340: real time    0.0338
    FORNL :  cpu time    3.2615: real time    3.2610
    STRESS:  cpu time    9.7885: real time    9.7911
    FORCOR:  cpu time    0.0550: real time    0.0551
    FORHAR:  cpu time    0.0520: real time    0.0518
    MIXING:  cpu time    0.0040: real time    0.0048
    OFIELD:  cpu time    0.0010: real time    0.0001

  FORCE on cell =-STRESS in cart. coord.  units (eV):
  Direction    XX          YY          ZZ          XY          YZ          ZX
  --------------------------------------------------------------------------------------
  Alpha Z  5276.70064  5276.70064  5276.70064
  Ewald  -29021.77659-29021.77659-29021.77659    -0.00000     0.00000    -0.00000
  Hartree 15793.70022 15793.70022 15793.70022    -0.00000    -0.00000    -0.00000
  E(xc)   -5228.29897 -5228.29897 -5228.29897     0.00000     0.00000    -0.00000
  Local    5199.89344  5199.89344  5199.89344     0.00000     0.00000     0.00000
  n-local   653.74173   657.07531   654.08946    -3.63855    -1.49420    -1.49421
  augment  2948.18007  2948.18007  2948.18007     0.00000     0.00000    -0.00000
  Kinetic  4374.45391  4382.27600  4373.80263    -8.37786    -3.66802    -3.66802
  Fock        0.00000     0.00000     0.00000     0.00000     0.00000     0.00000
  -------------------------------------------------------------------------------------
  Total       0.21182     0.21182     0.21182    -0.00000     0.00000     0.00000
  in kB       0.24053     0.24053     0.24053    -0.00000     0.00000     0.00000
  external pressure =        0.24 kB  Pullay stress =        0.00 kB


 VOLUME and BASIS-vectors are now :
 -----------------------------------------------------------------------------
  energy-cutoff  :      500.00
  volume of cell :     1410.92
      direct lattice vectors                 reciprocal lattice vectors
    11.215887233 -0.000000000 -0.000000000     0.089159242  0.000000000  0.000000000
    -0.000000000 11.215887233 -0.000000000     0.000000000  0.089159242 -0.000000000
    -0.000000000  0.000000000 11.215887233     0.000000000  0.000000000  0.089159242

  length of vectors
    11.215887233 11.215887233 11.215887233     0.089159242  0.089159242  0.089159242


 FORCES acting on ions
    electron-ion (+dipol)            ewald-force                    non-local-force                 convergence-correction
 -----------------------------------------------------------------------------------------------
   0.326E-12 -.156E-12 -.885E-13   0.242E-12 0.135E-12 -.462E-13   0.196E-16 -.117E-16 0.208E-16   -.115E-12 -.225E-12 0.311E-12
   0.214E-11 -.997E-13 0.831E-11   0.256E-12 0.199E-12 -.568E-13   0.786E-17 0.126E-16 -.569E-18   0.407E-12 -.168E-12 0.261E-12
   0.246E-12 0.888E-12 0.813E-12   0.263E-12 0.163E-12 -.167E-12   0.106E-16 0.775E-17 0.205E-16   -.112E-12 -.601E-12 -.691E-12
   0.222E-11 -.109E-10 -.364E-11   0.242E-12 0.163E-12 0.320E-13   0.170E-16 -.118E-16 0.136E-18   0.415E-12 -.437E-12 -.632E-12
   0.123E-11 -.411E-13 0.472E-11   0.227E-12 0.171E-12 0.114E-12   0.106E-16 -.873E-17 0.122E-16   -.205E-12 -.232E-12 0.578E-12
   0.305E-11 -.459E-13 0.661E-11   0.213E-12 0.114E-12 0.149E-12   0.399E-16 0.604E-17 -.276E-17   0.495E-12 -.218E-12 0.461E-12
   0.123E-11 0.389E-11 0.320E-11   0.249E-12 0.995E-13 -.213E-13   -.813E-18 0.978E-17 0.621E-17   -.108E-12 -.553E-12 0.831E-12
   0.321E-11 0.284E-11 -.752E-12   0.306E-12 0.149E-12 -.586E-13   0.927E-17 0.984E-17 0.111E-16   0.499E-12 -.522E-12 0.646E-12
   0.115E-11 0.198E-11 0.283E-11   0.218E-12 0.110E-12 -.142E-12   0.840E-17 -.894E-18 0.297E-16   -.684E-13 0.390E-12 -.687E-12
   0.305E-11 -.452E-11 0.113E-10   0.218E-12 -.124E-13 -.176E-12   0.683E-17 -.181E-16 0.447E-17   0.566E-12 0.409E-12 -.811E-12
   0.123E-11 0.887E-11 0.545E-13   0.185E-12 0.185E-12 -.995E-13   0.136E-16 -.342E-17 -.130E-17   -.213E-12 0.725E-12 0.221E-12
   0.304E-11 -.567E-11 0.159E-11   0.238E-12 0.234E-12 -.497E-13   0.391E-16 0.177E-16 0.176E-16   0.567E-12 0.615E-12 0.513E-13
   0.164E-12 0.287E-11 0.770E-12   0.288E-12 0.391E-13 -.675E-13   -.112E-16 -.157E-17 0.161E-16   -.194E-12 0.663E-12 -.753E-12
   0.206E-11 -.450E-11 -.207E-12   0.220E-12 0.782E-13 0.142E-13   0.147E-16 0.116E-16 0.178E-16   0.439E-12 0.691E-12 -.791E-12
   0.331E-12 0.176E-11 0.194E-11   0.309E-12 0.497E-13 -.657E-13   0.217E-17 0.396E-17 0.133E-16   -.149E-12 0.380E-12 0.620E-12
   0.198E-11 -.341E-11 -.597E-11   0.249E-12 -.142E-13 -.995E-13   0.526E-17 -.125E-16 0.754E-17   0.457E-12 0.420E-12 0.617E-12
   0.123E-11 -.182E-11 0.371E-11   0.227E-12 0.568E-13 0.000E+00   0.217E-17 0.800E-17 0.256E-16   -.166E-12 0.775E-12 0.707E-12
   0.305E-11 -.333E-10 0.183E-10   0.213E-12 -.924E-13 -.355E-13   0.146E-16 -.344E-17 -.626E-17   0.544E-12 0.608E-12 0.480E-12
   0.123E-11 -.142E-12 -.311E-11   0.185E-12 0.192E-12 0.711E-13   0.992E-17 -.161E-16 0.938E-17   -.218E-12 -.160E-12 -.590E-12
   0.313E-11 -.150E-12 -.101E-10   0.188E-12 0.165E-12 0.391E-13   0.960E-17 0.610E-17 0.308E-16   0.523E-12 -.208E-12 -.763E-12
   0.170E-12 -.899E-13 0.189E-11   0.227E-12 0.121E-12 0.213E-13   0.922E-18 -.932E-17 0.759E-18   -.103E-12 -.250E-12 0.734E-12
   0.231E-11 -.642E-13 -.576E-11   0.114E-12 0.171E-12 -.171E-12   0.916E-17 -.117E-16 0.580E-17   0.365E-12 -.137E-12 0.735E-12
   0.115E-11 0.160E-11 -.120E-11   0.234E-12 0.114E-12 0.284E-13   0.278E-16 0.360E-17 -.160E-16   -.862E-13 0.417E-12 0.531E-12
   0.304E-11 0.568E-11 -.209E-10   0.245E-12 0.210E-12 -.835E-13   0.152E-16 -.236E-17 0.143E-16   0.574E-12 0.412E-12 0.425E-12
   0.243E-12 0.895E-12 0.269E-11   0.295E-12 0.497E-13 0.142E-13   0.186E-16 -.404E-17 -.105E-16   -.118E-12 -.621E-12 0.600E-12
   0.214E-11 -.227E-11 -.236E-11   0.185E-12 0.000E+00 -.711E-14   0.229E-16 0.981E-17 0.246E-16   0.458E-12 -.484E-12 0.517E-12
   0.404E-12 0.292E-11 0.279E-11   0.185E-12 0.711E-13 -.497E-13   0.108E-16 -.724E-17 0.158E-16   -.169E-12 0.700E-12 0.491E-12
   0.223E-11 0.393E-11 0.111E-10   0.171E-12 0.114E-12 0.227E-12   0.338E-16 -.355E-17 -.182E-17   0.408E-12 0.749E-12 0.375E-12
   0.328E-12 0.178E-11 -.601E-13   0.254E-12 -.888E-14 0.604E-13   0.158E-16 0.436E-17 0.626E-17   -.159E-12 0.365E-12 0.221E-12
   0.231E-11 -.401E-11 0.235E-11   0.176E-12 0.153E-12 -.178E-13   0.178E-16 0.138E-16 0.234E-16   0.469E-12 0.414E-12 0.251E-12
   0.115E-11 -.204E-11 0.111E-11   0.203E-12 -.711E-14 0.163E-12   0.266E-16 0.623E-17 0.327E-16   -.174E-12 -.511E-12 0.476E-12
   0.288E-11 -.221E-10 0.145E-11   0.185E-12 0.728E-13 0.137E-12   0.304E-16 0.172E-16 -.960E-17   0.575E-12 -.496E-12 0.257E-12
   -.107E-07 -.108E-07 -.523E-08   -.171E-12 -.128E-12 -.639E-13   -.848E-17 0.251E-17 -.647E-17   0.447E-12 0.485E-12 0.298E-12
   -.107E-07 -.107E-07 -.523E-08   -.185E-12 -.995E-13 -.426E-13   -.431E-17 0.718E-18 -.107E-16   -.814E-12 0.717E-12 0.534E-12
   -.107E-07 -.107E-07 -.521E-08   -.142E-12 -.316E-13 0.142E-13   -.772E-17 0.387E-17 -.522E-17   0.625E-12 -.165E-12 0.110E-11
   -.107E-07 -.107E-07 -.522E-08   -.156E-12 -.565E-13 -.142E-13   -.697E-17 -.793E-18 -.117E-16   -.836E-12 0.157E-13 0.134E-11
   -.107E-07 -.107E-07 -.523E-08   -.207E-12 -.135E-12 0.213E-13   -.710E-17 0.563E-17 -.507E-17   -.780E-13 0.589E-12 0.487E-12
   -.107E-07 -.107E-07 -.523E-08   -.223E-12 -.711E-13 0.199E-12   -.485E-17 0.324E-17 -.141E-16   0.101E-12 0.551E-12 0.692E-12
   -.107E-07 -.107E-07 -.523E-08   -.252E-12 -.852E-13 0.205E-13   -.407E-17 0.228E-17 -.108E-16   0.185E-13 -.373E-13 -.104E-11
   -.107E-07 -.107E-07 -.522E-08   -.183E-12 -.781E-13 -.931E-13   -.707E-17 0.357E-17 -.274E-17   0.111E-13 -.961E-13 -.961E-12
   -.107E-07 -.108E-07 -.522E-08   -.195E-12 -.639E-13 -.355E-13   -.545E-17 0.453E-17 -.541E-17   0.122E-14 -.108E-11 0.139E-11
   -.107E-07 -.107E-07 -.524E-08   -.140E-12 -.156E-12 -.711E-13   -.396E-17 -.184E-17 -.156E-16   -.489E-13 -.113E-11 0.141E-11
   -.107E-07 -.107E-07 -.524E-08   -.182E-12 -.235E-12 0.140E-13   -.244E-17 -.538E-17 -.112E-16   -.101E-12 -.514E-12 0.518E-12
   -.107E-07 -.107E-07 -.523E-08   -.155E-12 -.931E-13 0.140E-13   -.797E-17 0.554E-17 -.777E-17   0.521E-13 -.436E-12 0.548E-12
   -.107E-07 -.107E-07 -.524E-08   -.171E-12 -.129E-13 -.103E-12   -.442E-17 -.833E-18 -.140E-16   0.549E-12 -.519E-12 0.130E-11
   -.107E-07 -.107E-07 -.522E-08   -.234E-12 -.484E-13 -.252E-12   -.759E-17 0.245E-17 -.203E-17   -.914E-12 -.436E-12 0.151E-11
   -.107E-07 -.108E-07 -.525E-08   -.224E-12 -.156E-12 0.213E-12   -.927E-17 0.257E-17 -.714E-17   0.615E-12 -.102E-11 -.946E-12
   -.107E-07 -.107E-07 -.523E-08   -.252E-12 -.249E-12 0.776E-13   -.271E-17 0.365E-17 -.142E-16   -.833E-12 -.101E-11 -.757E-12
   -.107E-07 -.107E-07 -.523E-08   -.277E-12 -.923E-14 -.619E-13   -.621E-17 0.222E-17 -.598E-17   -.122E-12 -.476E-12 -.989E-12
   -.107E-07 -.107E-07 -.523E-08   -.207E-12 -.137E-12 -.619E-13   -.659E-17 -.590E-17 -.108E-16   0.289E-13 -.517E-12 -.877E-12
   -.107E-07 -.107E-07 -.521E-08   -.211E-12 -.604E-13 -.213E-13   -.266E-17 -.167E-17 -.101E-16   -.320E-13 0.663E-12 0.124E-11
   -.107E-07 -.107E-07 -.523E-08   -.228E-12 -.853E-13 0.000E+00   -.813E-17 0.962E-18 -.159E-17   0.333E-13 0.612E-12 0.123E-11
   -.107E-07 -.107E-07 -.525E-08   -.242E-12 0.711E-13 -.169E-12   -.312E-17 0.134E-17 -.129E-16   0.603E-12 0.483E-12 -.116E-11
   -.107E-07 -.107E-07 -.523E-08   -.252E-12 -.142E-13 -.763E-13   -.493E-17 0.609E-17 -.110E-16   -.872E-12 0.655E-12 -.101E-11
   -.107E-07 -.107E-07 -.521E-08   -.251E-12 -.320E-13 0.924E-13   -.190E-17 0.474E-19 -.124E-16   0.339E-13 -.108E-11 0.712E-12
   -.107E-07 -.107E-07 -.523E-08   -.253E-12 -.853E-13 0.426E-13   -.623E-17 0.410E-17 -.127E-17   0.592E-13 -.111E-11 0.848E-12
   -.107E-07 -.107E-07 -.525E-08   -.199E-12 -.192E-12 -.568E-13   -.667E-17 0.110E-17 -.144E-16   0.557E-12 -.881E-13 0.524E-12
   -.107E-07 -.107E-07 -.523E-08   -.199E-12 -.299E-12 -.284E-13   -.496E-17 -.413E-18 -.434E-17   -.838E-12 0.314E-13 0.774E-12
   -.107E-07 -.107E-07 -.522E-08   -.160E-12 -.288E-13 -.711E-14   -.659E-17 0.171E-17 -.158E-17   0.485E-12 -.451E-12 0.604E-12
   -.107E-07 -.107E-07 -.523E-08   -.256E-12 0.314E-14 0.142E-12   -.404E-17 -.313E-17 -.120E-16   -.911E-12 -.458E-12 0.795E-12
   -.107E-07 -.107E-07 -.525E-08   -.270E-12 -.114E-12 -.121E-12   0.317E-17 0.131E-17 -.125E-16   0.559E-12 -.112E-11 0.489E-12
   -.107E-07 -.107E-07 -.523E-08   -.313E-12 -.853E-13 -.213E-12   -.938E-17 0.720E-17 -.550E-17   -.799E-12 -.110E-11 0.755E-12
   -.107E-07 -.107E-07 -.524E-08   -.286E-12 -.570E-13 -.142E-12   -.545E-17 0.442E-17 -.922E-18   0.567E-13 0.174E-13 0.518E-12
   -.107E-07 -.107E-07 -.523E-08   -.225E-12 -.854E-13 -.199E-12   -.520E-17 -.218E-17 -.108E-16   0.318E-13 -.567E-13 0.526E-12
 -----------------------------------------------------------------------------------------------
   -.343E-06 -.343E-06 -.167E-06   0.306E-12 0.333E-12 -.133E-11   0.286E-15 0.708E-16 0.457E-16   0.307E-11 -.517E-11 0.181E-10
 
 
 POSITION                                       TOTAL-FORCE (eV/Angst)
 -----------------------------------------------------------------------------------
     -0.00000     -0.00000      0.00000         0.000000      0.000000      0.000000
      5.60794     -0.00000     -0.00000         0.000000      0.000000      0.000000
     -0.00000      2.80397      2.80397         0.000000      0.000000      0.000000
      5.60794      2.80397      2.80397         0.000000      0.000000      0.000000
      2.80397      0.00000      8.41192         0.000000      0.000000      0.000000
      8.41192     -0.00000      8.41192         0.000000      0.000000      0.000000
      2.80397      2.80397      5.60794         0.000000      0.000000      0.000000
      8.41192      2.80397      5.60794         0.000000      0.000000      0.000000
      2.80397      5.60794      2.80397         0.000000      0.000000      0.000000
      8.41192      5.60794      2.80397         0.000000      0.000000      0.000000
      2.80397      8.41192     -0.00000         0.000000      0.000000      0.000000
      8.41192      8.41192     -0.00000         0.000000      0.000000      0.000000
     -0.00000      8.41192      2.80397         0.000000      0.000000      0.000000
      5.60794      8.41192      2.80397         0.000000      0.000000      0.000000
     -0.00000      5.60794      5.60794         0.000000      0.000000      0.000000
      5.60794      5.60794      5.60794         0.000000      0.000000      0.000000
      2.80397      8.41192      5.60794         0.000000      0.000000      0.000000
      8.41192      8.41192      5.60794         0.000000      0.000000      0.000000
      2.80397     -0.00000      2.80397         0.000000      0.000000      0.000000
      8.41192     -0.00000      2.80397         0.000000      0.000000      0.000000
     -0.00000      0.00000      5.60794         0.000000      0.000000      0.000000
      5.60794     -0.00000      5.60794         0.000000      0.000000      0.000000
      2.80397      5.60794      8.41192         0.000000      0.000000      0.000000
      8.41192      5.60794      8.41192         0.000000      0.000000      0.000000
     -0.00000      2.80397      8.41192         0.000000      0.000000      0.000000
      5.60794      2.80397      8.41192         0.000000      0.000000      0.000000
     -0.00000      8.41192      8.41192         0.000000      0.000000      0.000000
      5.60794      8.41192      8.41192         0.000000      0.000000      0.000000
     -0.00000      5.60794     -0.00000         0.000000      0.000000      0.000000
      5.60794      5.60794     -0.00000         0.000000      0.000000      0.000000
      2.80397      2.80397     -0.00000         0.000000      0.000000      0.000000
      8.41192      2.80397     -0.00000         0.000000      0.000000      0.000000
      7.00993      7.00993      7.00993        -0.000000      0.000000     -0.000000
      1.40199      7.00993      7.00993         0.000000      0.000000     -0.000000
      7.00993      9.81390      9.81390         0.000000      0.000000      0.000000
      1.40199      9.81390      9.81390         0.000000     -0.000000     -0.000000
      9.81390      7.00993      4.20596        -0.000000     -0.000000     -0.000000
      4.20596      7.00993      4.20596        -0.000000      0.000000      0.000000
      9.81390      9.81390      1.40199        -0.000000     -0.000000      0.000000
      4.20596      9.81390      1.40199        -0.000000      0.000000     -0.000000
      9.81390      1.40199      9.81390        -0.000000      0.000000      0.000000
      4.20596      1.40199      9.81390         0.000000     -0.000000      0.000000
      9.81390      4.20596      7.00993         0.000000      0.000000     -0.000000
      4.20596      4.20596      7.00993         0.000000      0.000000     -0.000000
      7.00993      4.20596      9.81390         0.000000     -0.000000     -0.000000
      1.40199      4.20596      9.81390        -0.000000      0.000000      0.000000
      7.00993      1.40199      1.40199        -0.000000      0.000000     -0.000000
      1.40199      1.40199      1.40199        -0.000000     -0.000000     -0.000000
      9.81390      4.20596      1.40199        -0.000000      0.000000     -0.000000
      4.20596      4.20596      1.40199        -0.000000     -0.000000      0.000000
      9.81390      7.00993      9.81390        -0.000000     -0.000000     -0.000000
      4.20596      7.00993      9.81390        -0.000000      0.000000      0.000000
      7.00993      7.00993      1.40199        -0.000000     -0.000000      0.000000
      1.40199      7.00993      1.40199         0.000000      0.000000     -0.000000
      9.81390      1.40199      4.20596         0.000000      0.000000      0.000000
      4.20596      1.40199      4.20596        -0.000000     -0.000000     -0.000000
      7.00993      9.81390      4.20596        -0.000000     -0.000000      0.000000
      1.40199      9.81390      4.20596        -0.000000     -0.000000     -0.000000
      7.00993      4.20596      4.20596        -0.000000     -0.000000     -0.000000
      1.40199      4.20596      4.20596         0.000000      0.000000      0.000000
      7.00993      1.40199      7.00993         0.000000     -0.000000     -0.000000
      1.40199      1.40199      7.00993        -0.000000      0.000000     -0.000000
      9.81390      9.81390      7.00993        -0.000000      0.000000     -0.000000
      4.20596      9.81390      7.00993         0.000000      0.000000     -0.000000
 -----------------------------------------------------------------------------------
    total drift:                               -0.000000     -0.000000     -0.000000


--------------------------------------------------------------------------------------------------------



  FREE ENERGIE OF THE ION-ELECTRON SYSTEM (eV)
  ---------------------------------------------------
  free  energy   TOTEN  =      -308.70730146 eV

  energy  without entropy=     -308.70730146  energy(sigma->0) =     -308.70730146
 
 d Force = 0.0000000E+00[ 0.000E+00, 0.000E+00]  d Energy = 0.2112354E+00-0.211E+00
 d Force = 0.0000000E+00[ 0.000E+00, 0.000E+00]  d Ewald  =-0.7249038E+03 0.725E+03


--------------------------------------------------------------------------------------------------------


    POTLOK:  cpu time    0.0410: real time    0.0419


--------------------------------------------------------------------------------------------------------




--------------------------------------------------------------------------------------------------------


  
 reached required accuracy - stopping structural energy minimisation
     LOOP+:  cpu time  261.2903: real time  261.5885
    4ORBIT:  cpu time    0.0000: real time    0.0000

 total amount of memory used by VASP on root node   112851. kBytes
========================================================================

   base      :      30000. kBytes
   nonlr-proj:       9320. kBytes
   fftplans  :       6066. kBytes
   grid      :       9092. kBytes
   one-center:        248. kBytes
   wavefun   :      58125. kBytes
 
  
  
 General timing and accounting informations for this job:
 ========================================================
  
                  Total CPU time used (sec):      899.546
                            User time (sec):      880.774
                          System time (sec):       18.772
                         Elapsed time (sec):      900.972
  
                   Maximum memory used (kb):      151480.
                   Average memory used (kb):           0.
  
                          Minor page faults:      7553556
                          Major page faults:           11
                 Voluntary context switches:         2829
