 vasp.5.4.1 24Jun15 (build Jan 04 2019 14:02:05) complex                        
  
 executed on           IFC91_ompi date 2019.03.05  03:11:14
 running on   28 total cores
 distrk:  each k-point on   28 cores,    1 groups
 distr:  one band on NCORES_PER_BAND=   4 cores,    7 groups


--------------------------------------------------------------------------------------------------------


 INCAR:
 POTCAR:    PAW Ga_d 06Jul2010                    
 POTCAR:    PAW As_d 11Apr2003                    
 POTCAR:    PAW Ga_d 06Jul2010                    
   VRHFIN =Ga: s2p1                                                             
   LEXCH  = CA                                                                  
   EATOM  =  2154.4592 eV,  158.3483 Ry                                         
                                                                                
   TITEL  = PAW Ga_d 06Jul2010                                                  
   LULTRA =        F    use ultrasoft PP ?                                      
   IUNSCR =        1    unscreen: 0-lin 1-nonlin 2-no                           
   RPACOR =    1.700    partial core radius                                     
   POMASS =   69.723; ZVAL   =   13.000    mass and valenz                      
   RCORE  =    2.300    outmost cutoff radius                                   
   RWIGS  =    2.300; RWIGS  =    1.217    wigner-seitz radius (au A)           
   ENMAX  =  282.829; ENMIN  =  212.121 eV                                      
   ICORE  =        3    local potential                                         
   LCOR   =        T    correct aug charges                                     
   LPAW   =        T    paw PP                                                  
   EAUG   =  490.690                                                            
   DEXC   =    0.000                                                            
   RMAX   =    2.341    core radius for proj-oper                               
   RAUG   =    1.300    factor for augmentation sphere                          
   RDEP   =    2.413    radius for radial grids                                 
   RDEPT  =    1.856    core radius for aug-charge                              
                                                                                
   Atomic configuration                                                         
    9 entries                                                                   
     n  l   j            E        occ.                                          
     1  0  0.50    -10177.9539   2.0000                                         
     2  0  0.50     -1257.0037   2.0000                                         
     2  1  1.50     -1096.5304   6.0000                                         
     3  0  0.50      -147.0449   2.0000                                         
     3  1  1.50       -98.5146   6.0000                                         
     3  2  2.50       -19.4350  10.0000                                         
     4  0  0.50        -9.1573   2.0000                                         
     4  1  0.50        -2.7399   1.0000                                         
     4  3  2.50        -2.7416   0.0000                                         
   Description                                                                  
     l       E           TYP  RCUT    TYP  RCUT                                 
     2    -19.4350265     23  2.300                                             
     2     -5.4423304     23  2.300                                             
     0     -9.1573136     23  2.300                                             
     0     68.0291300     23  2.300                                             
     1     -2.7399180     23  2.100                                             
     1     81.6349560     23  2.300                                             
     3      6.8029130     23  2.300                                             
  local pseudopotential read in
  partial core-charges read in
  partial kinetic energy density read in
  atomic valenz-charges read in
  non local Contribution for L=           2  read in
    real space projection operators read in
  non local Contribution for L=           2  read in
    real space projection operators read in
  non local Contribution for L=           0  read in
    real space projection operators read in
  non local Contribution for L=           0  read in
    real space projection operators read in
  non local Contribution for L=           1  read in
    real space projection operators read in
  non local Contribution for L=           1  read in
    real space projection operators read in
    PAW grid and wavefunctions read in
 
   number of l-projection  operators is LMAX  =           6
   number of lm-projection operators is LMMAX =          18
 
 POTCAR:    PAW As_d 11Apr2003                    
   VRHFIN =As: d10s2p3                                                          
   LEXCH  = CA                                                                  
   EATOM  =  3100.2560 eV,  227.8624 Ry                                         
                                                                                
   TITEL  = PAW As_d 11Apr2003                                                  
   LULTRA =        F    use ultrasoft PP ?                                      
   IUNSCR =        1    unscreen: 0-lin 1-nonlin 2-no                           
   RPACOR =    2.000    partial core radius                                     
   POMASS =   74.922; ZVAL   =   15.000    mass and valenz                      
   RCORE  =    2.300    outmost cutoff radius                                   
   RWIGS  =    2.300; RWIGS  =    1.217    wigner-seitz radius (au A)           
   ENMAX  =  288.762; ENMIN  =  216.572 eV                                      
   ICORE  =        3    local potential                                         
   LCOR   =        T    correct aug charges                                     
   LPAW   =        T    paw PP                                                  
   EAUG   =  525.949                                                            
   DEXC   =    0.000                                                            
   RMAX   =    2.360    core radius for proj-oper                               
   RAUG   =    1.300    factor for augmentation sphere                          
   RDEP   =    2.432    radius for radial grids                                 
   RDEPT  =    1.871    core radius for aug-charge                              
                                                                                
   Atomic configuration                                                         
    9 entries                                                                   
     n  l   j            E        occ.                                          
     1  0  0.50    -11659.1331   2.0000                                         
     2  0  0.50     -1480.5455   2.0000                                         
     2  1  1.50     -1300.8395   6.0000                                         
     3  0  0.50      -189.0128   2.0000                                         
     3  1  1.50      -133.2331   6.0000                                         
     3  2  2.50       -40.9396  10.0000                                         
     4  0  0.50       -14.6732   2.0000                                         
     4  1  0.50        -5.3484   3.0000                                         
     4  3  2.50        -5.4423   0.0000                                         
   Description                                                                  
     l       E           TYP  RCUT    TYP  RCUT                                 
     2    -40.9396402     23  2.300                                             
     2     -1.3605826     23  2.300                                             
     0    -14.6731860     23  2.300                                             
     0    -12.1858709     23  2.300                                             
     1     -5.3484093     23  2.300                                             
     1      1.7733903     23  2.300                                             
     3     -1.3605826      7  2.300                                             
  local pseudopotential read in
  partial core-charges read in
  partial kinetic energy density read in
  atomic valenz-charges read in
  non local Contribution for L=           2  read in
    real space projection operators read in
  non local Contribution for L=           2  read in
    real space projection operators read in
  non local Contribution for L=           0  read in
    real space projection operators read in
  non local Contribution for L=           0  read in
    real space projection operators read in
  non local Contribution for L=           1  read in
    real space projection operators read in
  non local Contribution for L=           1  read in
    real space projection operators read in
    PAW grid and wavefunctions read in
 
   number of l-projection  operators is LMAX  =           6
   number of lm-projection operators is LMMAX =          18
 
 Optimization of the real space projectors (new method)

 maximal supplied QI-value         = 16.25
 optimisation between [QCUT,QGAM] = [ 11.38, 22.75] = [ 36.24,144.96] Ry 
 Optimized for a Real-space Cutoff    1.35 Angstroem

   l    n(q)    QCUT    max X(q) W(low)/X(q) W(high)/X(q)  e(spline) 
   2      8    11.376     7.160    0.23E-03    0.28E-03    0.13E-06
   2      8    11.376     5.555    0.49E-03    0.56E-03    0.20E-06
   0      9    11.376    12.310    0.60E-04    0.47E-04    0.22E-07
   0      9    11.376     6.591    0.12E-03    0.98E-04    0.49E-07
   1      9    11.376     7.817    0.22E-03    0.30E-03    0.14E-06
   1      9    11.376     2.416    0.19E-03    0.26E-03    0.13E-06
 Optimization of the real space projectors (new method)

 maximal supplied QI-value         = 16.25
 optimisation between [QCUT,QGAM] = [ 11.38, 22.75] = [ 36.24,144.96] Ry 
 Optimized for a Real-space Cutoff    1.27 Angstroem

   l    n(q)    QCUT    max X(q) W(low)/X(q) W(high)/X(q)  e(spline) 
   2      8    11.376    15.961    0.11E-03    0.23E-03    0.99E-07
   2      8    11.376     6.274    0.17E-03    0.37E-03    0.13E-06
   0      9    11.376    98.969    0.92E-04    0.20E-03    0.90E-07
   0      9    11.376    79.622    0.98E-04    0.21E-03    0.96E-07
   1      8    11.376    38.979    0.40E-03    0.88E-04    0.16E-06
   1      8    11.376    26.921    0.39E-03    0.93E-04    0.16E-06
  PAW Ga_d 06Jul2010                    :
 energy of atom  1       EATOM=-2154.4592
 kinetic energy error for atom=    0.0027 (will be added to EATOM!!)
  PAW As_d 11Apr2003                    :
 energy of atom  2       EATOM=-3100.2560
 kinetic energy error for atom=    0.0019 (will be added to EATOM!!)
 
 
 POSCAR: POSCAR with -8.23987132543              
  positions in direct lattice
  No initial velocities read in
 exchange correlation table for  LEXCH =        2
   RHO(1)=    0.500       N(1)  =     2000
   RHO(2)=  100.500       N(2)  =     4000
 


--------------------------------------------------------------------------------------------------------


 ion  position               nearest neighbor table
   1  0.000  0.000  0.000-  36 2.52  39 2.52  41 2.52  48 2.52
   2  0.500  0.000  0.000-  35 2.52  40 2.52  42 2.52  47 2.52
   3  0.000  0.250  0.250-  48 2.52  49 2.52  55 2.52  60 2.52
   4  0.500  0.250  0.250-  47 2.52  50 2.52  56 2.52  59 2.52
   5  0.250  0.000  0.750-  36 2.52  42 2.52  62 2.52  64 2.52
   6  0.750  0.000  0.750-  35 2.52  41 2.52  61 2.52  63 2.52
   7  0.250  0.250  0.500-  44 2.52  56 2.52  60 2.52  62 2.52
   8  0.750  0.250  0.500-  43 2.52  55 2.52  59 2.52  61 2.52
   9  0.250  0.500  0.250-  38 2.52  50 2.52  54 2.52  60 2.52
  10  0.750  0.500  0.250-  37 2.52  49 2.52  53 2.52  59 2.52
  11  0.250  0.750  0.000-  36 2.52  40 2.52  52 2.52  54 2.52
  12  0.750  0.750  0.000-  35 2.52  39 2.52  51 2.52  53 2.52
  13  0.000  0.750  0.250-  37 2.52  39 2.52  54 2.52  58 2.52
  14  0.500  0.750  0.250-  38 2.52  40 2.52  53 2.52  57 2.52
  15  0.000  0.500  0.500-  34 2.52  37 2.52  43 2.52  60 2.52
  16  0.500  0.500  0.500-  33 2.52  38 2.52  44 2.52  59 2.52
  17  0.250  0.750  0.500-  34 2.52  38 2.52  58 2.52  64 2.52
  18  0.750  0.750  0.500-  33 2.52  37 2.52  57 2.52  63 2.52
  19  0.250  0.000  0.250-  40 2.52  48 2.52  56 2.52  58 2.52
  20  0.750  0.000  0.250-  39 2.52  47 2.52  55 2.52  57 2.52
  21  0.000  0.000  0.500-  55 2.52  58 2.52  62 2.52  63 2.52
  22  0.500  0.000  0.500-  56 2.52  57 2.52  61 2.52  64 2.52
  23  0.250  0.500  0.750-  34 2.52  44 2.52  46 2.52  52 2.52
  24  0.750  0.500  0.750-  33 2.52  43 2.52  45 2.52  51 2.52
  25  0.000  0.250  0.750-  41 2.52  43 2.52  46 2.52  62 2.52
  26  0.500  0.250  0.750-  42 2.52  44 2.52  45 2.52  61 2.52
  27  0.000  0.750  0.750-  34 2.52  36 2.52  51 2.52  63 2.52
  28  0.500  0.750  0.750-  33 2.52  35 2.52  52 2.52  64 2.52
  29  0.000  0.500  0.000-  46 2.52  49 2.52  51 2.52  54 2.52
  30  0.500  0.500  0.000-  45 2.52  50 2.52  52 2.52  53 2.52
  31  0.250  0.250  0.000-  42 2.52  46 2.52  48 2.52  50 2.52
  32  0.750  0.250  0.000-  41 2.52  45 2.52  47 2.52  49 2.52
  33  0.625  0.625  0.625-  16 2.52  18 2.52  24 2.52  28 2.52
  34  0.125  0.625  0.625-  15 2.52  17 2.52  23 2.52  27 2.52
  35  0.625  0.875  0.875-   2 2.52   6 2.52  12 2.52  28 2.52
  36  0.125  0.875  0.875-   1 2.52   5 2.52  11 2.52  27 2.52
  37  0.875  0.625  0.375-  10 2.52  13 2.52  15 2.52  18 2.52
  38  0.375  0.625  0.375-   9 2.52  14 2.52  16 2.52  17 2.52
  39  0.875  0.875  0.125-   1 2.52  12 2.52  13 2.52  20 2.52
  40  0.375  0.875  0.125-   2 2.52  11 2.52  14 2.52  19 2.52
  41  0.875  0.125  0.875-   1 2.52   6 2.52  25 2.52  32 2.52
  42  0.375  0.125  0.875-   2 2.52   5 2.52  26 2.52  31 2.52
  43  0.875  0.375  0.625-   8 2.52  15 2.52  24 2.52  25 2.52
  44  0.375  0.375  0.625-   7 2.52  16 2.52  23 2.52  26 2.52
  45  0.625  0.375  0.875-  24 2.52  26 2.52  30 2.52  32 2.52
  46  0.125  0.375  0.875-  23 2.52  25 2.52  29 2.52  31 2.52
  47  0.625  0.125  0.125-   2 2.52   4 2.52  20 2.52  32 2.52
  48  0.125  0.125  0.125-   1 2.52   3 2.52  19 2.52  31 2.52
  49  0.875  0.375  0.125-   3 2.52  10 2.52  29 2.52  32 2.52
  50  0.375  0.375  0.125-   4 2.52   9 2.52  30 2.52  31 2.52
  51  0.875  0.625  0.875-  12 2.52  24 2.52  27 2.52  29 2.52
  52  0.375  0.625  0.875-  11 2.52  23 2.52  28 2.52  30 2.52
  53  0.625  0.625  0.125-  10 2.52  12 2.52  14 2.52  30 2.52
  54  0.125  0.625  0.125-   9 2.52  11 2.52  13 2.52  29 2.52
  55  0.875  0.125  0.375-   3 2.52   8 2.52  20 2.52  21 2.52
  56  0.375  0.125  0.375-   4 2.52   7 2.52  19 2.52  22 2.52
  57  0.625  0.875  0.375-  14 2.52  18 2.52  20 2.52  22 2.52
  58  0.125  0.875  0.375-  13 2.52  17 2.52  19 2.52  21 2.52
  59  0.625  0.375  0.375-   4 2.52   8 2.52  10 2.52  16 2.52
  60  0.125  0.375  0.375-   3 2.52   7 2.52   9 2.52  15 2.52
  61  0.625  0.125  0.625-   6 2.52   8 2.52  22 2.52  26 2.52
  62  0.125  0.125  0.625-   5 2.52   7 2.52  21 2.52  25 2.52
  63  0.875  0.875  0.625-   6 2.52  18 2.52  21 2.52  27 2.52
  64  0.375  0.875  0.625-   5 2.52  17 2.52  22 2.52  28 2.52
 
  LATTYP: Found a simple cubic cell.
 ALAT       =    11.6603349251
  
  Lattice vectors:
  
 A1 = (  11.6603349251,   0.0000000000,   0.0000000000)
 A2 = (   0.0000000000,  11.6603349251,   0.0000000000)
 A3 = (   0.0000000000,   0.0000000000,  11.6603349251)


Analysis of symmetry for initial positions (statically):
=====================================================================
 Subroutine PRICEL returns following result:
 
  LATTYP: Found a face centered cubic cell.
 ALAT       =     5.8301674626
  
  Lattice vectors:
  
 A1 = (   2.9150837313,   2.9150837313,   0.0000000000)
 A2 = (   2.9150837313,   0.0000000000,  -2.9150837313)
 A3 = (   0.0000000000,   2.9150837313,  -2.9150837313)
 
  32 primitive cells build up your supercell.
 

 Routine SETGRP: Setting up the symmetry group for a 
 simple cubic supercell.


 Subroutine GETGRP returns: Found 24 space group operations
 (whereof 24 operations were pure point group operations)
 out of a pool of 48 trial point group operations.


The static configuration has the point symmetry T_d .


Analysis of symmetry for dynamics (positions and initial velocities):
=====================================================================
 Subroutine PRICEL returns following result:
 
  LATTYP: Found a face centered cubic cell.
 ALAT       =     5.8301674626
  
  Lattice vectors:
  
 A1 = (   2.9150837313,   2.9150837313,   0.0000000000)
 A2 = (   2.9150837313,   0.0000000000,  -2.9150837313)
 A3 = (   0.0000000000,   2.9150837313,  -2.9150837313)
 
  32 primitive cells build up your supercell.
 

 Routine SETGRP: Setting up the symmetry group for a 
 simple cubic supercell.


 Subroutine GETGRP returns: Found 24 space group operations
 (whereof 24 operations were pure point group operations)
 out of a pool of 48 trial point group operations.


The dynamic configuration has the point symmetry T_d .


 Subroutine INISYM returns: Found 24 space group operations
 (whereof 24 operations are pure point group operations),
 and found    32 'primitive' translations

 
 
 KPOINTS: koint                                   

Automatic generation of k-mesh.
Space group operators:
 irot       det(A)        alpha          n_x          n_y          n_z        tau_x        tau_y        tau_z
    1     1.000000     0.000000     1.000000     0.000000     0.000000     0.000000     0.000000     0.000000
    2     1.000000   120.000000    -0.577350    -0.577350    -0.577350     0.000000     0.000000     0.000000
    3     1.000000   120.000000     0.577350     0.577350     0.577350     0.000000     0.000000     0.000000
    4    -1.000000    90.000000     0.000000     0.000000    -1.000000     0.000000     0.000000     0.000000
    5    -1.000000   180.000000     0.000000     0.707107     0.707107     0.000000     0.000000     0.000000
    6    -1.000000    90.000000     0.000000     1.000000     0.000000     0.000000     0.000000     0.000000
    7     1.000000   180.000000     0.000000     0.000000     1.000000     0.000000     0.000000     0.000000
    8     1.000000   120.000000    -0.577350     0.577350     0.577350     0.000000     0.000000     0.000000
    9     1.000000   120.000000    -0.577350     0.577350    -0.577350     0.000000     0.000000     0.000000
   10    -1.000000    90.000000     0.000000     0.000000     1.000000     0.000000     0.000000     0.000000
   11    -1.000000    90.000000    -1.000000     0.000000     0.000000     0.000000     0.000000     0.000000
   12    -1.000000   180.000000     0.707107     0.000000     0.707107     0.000000     0.000000     0.000000
   13     1.000000   120.000000     0.577350    -0.577350     0.577350     0.000000     0.000000     0.000000
   14     1.000000   120.000000    -0.577350    -0.577350     0.577350     0.000000     0.000000     0.000000
   15     1.000000   180.000000     1.000000     0.000000     0.000000     0.000000     0.000000     0.000000
   16    -1.000000    90.000000     0.000000    -1.000000     0.000000     0.000000     0.000000     0.000000
   17    -1.000000   180.000000     0.707107     0.707107     0.000000     0.000000     0.000000     0.000000
   18    -1.000000    90.000000     1.000000     0.000000     0.000000     0.000000     0.000000     0.000000
   19     1.000000   120.000000     0.577350    -0.577350    -0.577350     0.000000     0.000000     0.000000
   20     1.000000   180.000000     0.000000     1.000000     0.000000     0.000000     0.000000     0.000000
   21     1.000000   120.000000     0.577350     0.577350    -0.577350     0.000000     0.000000     0.000000
   22    -1.000000   180.000000     0.000000    -0.707107     0.707107     0.000000     0.000000     0.000000
   23    -1.000000   180.000000     0.707107    -0.707107     0.000000     0.000000     0.000000     0.000000
   24    -1.000000   180.000000     0.707107     0.000000    -0.707107     0.000000     0.000000     0.000000
 
 Subroutine IBZKPT returns following result:
 ===========================================
 
 Found      4 irreducible k-points:
 
 Following reciprocal coordinates:
            Coordinates               Weight
  0.000000  0.000000  0.000000      1.000000
  0.333333  0.000000  0.000000      6.000000
  0.333333  0.333333  0.000000     12.000000
  0.333333  0.333333  0.333333      8.000000
 
 Following cartesian coordinates:
            Coordinates               Weight
  0.000000  0.000000  0.000000      1.000000
  0.028587  0.000000  0.000000      6.000000
  0.028587  0.028587  0.000000     12.000000
  0.028587  0.028587  0.028587      8.000000
 


--------------------------------------------------------------------------------------------------------




 Dimension of arrays:
   k-points           NKPTS =      4   k-points in BZ     NKDIM =      4   number of bands    NBANDS=    539
   number of dos      NEDOS =    301   number of ions     NIONS =     64
   non local maximal  LDIM  =      6   non local SUM 2l+1 LMDIM =     18
   total plane-waves  NPLWV = 262144
   max r-space proj   IRMAX =   1751   max aug-charges    IRDMAX=   6465
   dimension x,y,z NGX =    64 NGY =   64 NGZ =   64
   dimension x,y,z NGXF=   128 NGYF=  128 NGZF=  128
   support grid    NGXF=   128 NGYF=  128 NGZF=  128
   ions per type =              32  32
 NGX,Y,Z   is equivalent  to a cutoff of   9.12,  9.12,  9.12 a.u.
 NGXF,Y,Z  is equivalent  to a cutoff of  18.25, 18.25, 18.25 a.u.


 I would recommend the setting:
   dimension x,y,z NGX =    64 NGY =   64 NGZ =   64
 SYSTEM =  unknown system                          
 POSCAR =  POSCAR with -8.23987132543              

 Startparameter for this run:
   NWRITE =      2    write-flag & timer
   PREC   = normal    normal or accurate (medium, high low for compatibility)
   ISTART =      0    job   : 0-new  1-cont  2-samecut
   ICHARG =      2    charge: 1-file 2-atom 10-const
   ISPIN  =      1    spin polarized calculation?
   LNONCOLLINEAR =      F non collinear calculations
   LSORBIT =      F    spin-orbit coupling
   INIWAV =      1    electr: 0-lowe 1-rand  2-diag
   LASPH  =      F    aspherical Exc in radial PAW
   METAGGA=      F    non-selfconsistent MetaGGA calc.

 Electronic Relaxation 1
   ENCUT  =  500.0 eV  36.75 Ry    6.06 a.u.  21.26 21.26 21.26*2*pi/ulx,y,z
   ENINI  =  500.0     initial cutoff
   ENAUG  =  525.9 eV  augmentation charge cutoff
   NELM   =     60;   NELMIN=  2; NELMDL= -5     # of ELM steps 
   EDIFF  = 0.1E-05   stopping-criterion for ELM
   LREAL  =      T    real-space projection
   NLSPLINE    = F    spline interpolate recip. space projectors
   LCOMPAT=      F    compatible to vasp.4.4
   GGA_COMPAT  = T    GGA compatible to vasp.4.4-vasp.4.6
   LMAXPAW     = -100 max onsite density
   LMAXMIX     =    2 max onsite mixed and CHGCAR
   VOSKOWN=      0    Vosko Wilk Nusair interpolation
   ROPT   =   -0.00050  -0.00050
 Ionic relaxation
   EDIFFG = -.2E-01   stopping-criterion for IOM
   NSW    =    100    number of steps for IOM
   NBLOCK =      1;   KBLOCK =    100    inner block; outer block 
   IBRION =      2    ionic relax: 0-MD 1-quasi-New 2-CG
   NFREE  =      1    steps in history (QN), initial steepest desc. (CG)
   ISIF   =      2    stress and relaxation
   IWAVPR =     11    prediction:  0-non 1-charg 2-wave 3-comb
   ISYM   =      2    0-nonsym 1-usesym 2-fastsym
   LCORR  =      T    Harris-Foulkes like correction to forces

   POTIM  = 0.5000    time-step for ionic-motion
   TEIN   =    0.0    initial temperature
   TEBEG  =    0.0;   TEEND  =   0.0 temperature during run
   SMASS  =  -3.00    Nose mass-parameter (am)
   estimated Nose-frequenzy (Omega)   =  0.10E-29 period in steps =****** mass=  -0.311E-26a.u.
   SCALEE = 1.0000    scale energy and forces
   NPACO  =    256;   APACO  = 16.0  distance and # of slots for P.C.
   PSTRESS=    0.0 pullay stress

  Mass of Ions in am
   POMASS =  69.72 74.92
  Ionic Valenz
   ZVAL   =  13.00 15.00
  Atomic Wigner-Seitz radii
   RWIGS  =  -1.00 -1.00
  virtual crystal weights 
   VCA    =   1.00  1.00
   NELECT =     896.0000    total number of electrons
   NUPDOWN=      -1.0000    fix difference up-down

 DOS related values:
   EMIN   =  10.00;   EMAX   =-10.00  energy-range for DOS
   EFERMI =   0.00
   ISMEAR =     0;   SIGMA  =   0.01  broadening in eV -4-tet -1-fermi 0-gaus

 Electronic relaxation 2 (details)
   IALGO  =     38    algorithm
   LDIAG  =      T    sub-space diagonalisation (order eigenvalues)
   LSUBROT=      F    optimize rotation matrix (better conditioning)
   TURBO    =      0    0=normal 1=particle mesh
   IRESTART =      0    0=no restart 2=restart with 2 vectors
   NREBOOT  =      0    no. of reboots
   NMIN     =      0    reboot dimension
   EREF     =   0.00    reference energy to select bands
   IMIX   =      4    mixing-type and parameters
     AMIX     =   0.40;   BMIX     =  1.00
     AMIX_MAG =   1.60;   BMIX_MAG =  1.00
     AMIN     =   0.10
     WC   =   100.;   INIMIX=   1;  MIXPRE=   1;  MAXMIX= -45

 Intra band minimization:
   WEIMIN = 0.0010     energy-eigenvalue tresh-hold
   EBREAK =  0.46E-09  absolut break condition
   DEPER  =   0.30     relativ break condition  

   TIME   =   0.40     timestep for ELM

  volume/ion in A,a.u.               =      24.77       167.17
  Fermi-wavevector in a.u.,A,eV,Ry     =   1.353526  2.557793 24.926303  1.832032
  Thomas-Fermi vector in A             =   2.480774
 
 Write flags
   LWAVE  =      F    write WAVECAR
   LCHARG =      F    write CHGCAR
   LVTOT  =      F    write LOCPOT, total local potential
   LVHAR  =      F    write LOCPOT, Hartree potential only
   LELF   =      F    write electronic localiz. function (ELF)
   LORBIT =      0    0 simple, 1 ext, 2 COOP (PROOUT)


 Dipole corrections
   LMONO  =      F    monopole corrections only (constant potential shift)
   LDIPOL =      F    correct potential (dipole corrections)
   IDIPOL =      0    1-x, 2-y, 3-z, 4-all directions 
   EPSILON=  1.0000000 bulk dielectric constant

 Exchange correlation treatment:
   GGA     =    --    GGA type
   LEXCH   =     2    internal setting for exchange type
   VOSKOWN=      0    Vosko Wilk Nusair interpolation
   LHFCALC =     F    Hartree Fock is set to
   LHFONE  =     F    Hartree Fock one center treatment
   AEXX    =    0.0000 exact exchange contribution

 Linear response parameters
   LEPSILON=     F    determine dielectric tensor
   LRPA    =     F    only Hartree local field effects (RPA)
   LNABLA  =     F    use nabla operator in PAW spheres
   LVEL    =     F    velocity operator in full k-point grid
   LINTERFAST=   F  fast interpolation
   KINTER  =     0    interpolate to denser k-point grid
   CSHIFT  =0.1000    complex shift for real part using Kramers Kronig
   OMEGAMAX=  -1.0    maximum frequency
   DEG_THRESHOLD= 0.2000000E-02 threshold for treating states as degnerate
   RTIME   =    0.100 relaxation time in fs

 Orbital magnetization related:
   ORBITALMAG=     F  switch on orbital magnetization
   LCHIMAG   =     F  perturbation theory with respect to B field
   DQ        =  0.001000  dq finite difference perturbation B field



--------------------------------------------------------------------------------------------------------


 conjugate gradient relaxation of ions
 charge density and potential will be updated during run
 non-spin polarized calculation
 Variant of blocked Davidson
 Davidson routine will perform the subspace rotation
 perform sub-space diagonalisation
    after iterative eigenvector-optimisation
 modified Broyden-mixing scheme, WC =      100.0
 initial mixing is a Kerker type mixing with AMIX =  0.4000 and BMIX =      1.0000
 Hartree-type preconditioning will be used
 using additional bands           91
 real space projection scheme for non local part
 use partial core corrections
 calculate Harris-corrections to forces 
   (improved forces if not selfconsistent)
 use of overlap-Matrix (Vanderbilt PP)
 Gauss-broadening in eV      SIGMA  =   0.01


--------------------------------------------------------------------------------------------------------


  energy-cutoff  :      500.00
  volume of cell :     1585.38
      direct lattice vectors                 reciprocal lattice vectors
    11.660334925  0.000000000  0.000000000     0.085760830  0.000000000  0.000000000
     0.000000000 11.660334925  0.000000000     0.000000000  0.085760830  0.000000000
     0.000000000  0.000000000 11.660334925     0.000000000  0.000000000  0.085760830

  length of vectors
    11.660334925 11.660334925 11.660334925     0.085760830  0.085760830  0.085760830


 
 k-points in units of 2pi/SCALE and weight: koint                                   
   0.00000000  0.00000000  0.00000000       0.037
   0.02858694  0.00000000  0.00000000       0.222
   0.02858694  0.02858694  0.00000000       0.444
   0.02858694  0.02858694  0.02858694       0.296
 
 k-points in reciprocal lattice and weights: koint                                   
   0.00000000  0.00000000  0.00000000       0.037
   0.33333333  0.00000000  0.00000000       0.222
   0.33333333  0.33333333  0.00000000       0.444
   0.33333333  0.33333333  0.33333333       0.296
 
 position of ions in fractional coordinates (direct lattice) 
   0.00000000  0.00000000  0.00000000
   0.50000000  0.00000000  0.00000000
   0.00000000  0.25000000  0.25000000
   0.50000000  0.25000000  0.25000000
   0.25000000  0.00000000  0.75000000
   0.75000000  0.00000000  0.75000000
   0.25000000  0.25000000  0.50000000
   0.75000000  0.25000000  0.50000000
   0.25000000  0.50000000  0.25000000
   0.75000000  0.50000000  0.25000000
   0.25000000  0.75000000  0.00000000
   0.75000000  0.75000000  0.00000000
   0.00000000  0.75000000  0.25000000
   0.50000000  0.75000000  0.25000000
   0.00000000  0.50000000  0.50000000
   0.50000000  0.50000000  0.50000000
   0.25000000  0.75000000  0.50000000
   0.75000000  0.75000000  0.50000000
   0.25000000  0.00000000  0.25000000
   0.75000000  0.00000000  0.25000000
   0.00000000  0.00000000  0.50000000
   0.50000000  0.00000000  0.50000000
   0.25000000  0.50000000  0.75000000
   0.75000000  0.50000000  0.75000000
   0.00000000  0.25000000  0.75000000
   0.50000000  0.25000000  0.75000000
   0.00000000  0.75000000  0.75000000
   0.50000000  0.75000000  0.75000000
   0.00000000  0.50000000  0.00000000
   0.50000000  0.50000000  0.00000000
   0.25000000  0.25000000  0.00000000
   0.75000000  0.25000000  0.00000000
   0.62500000  0.62500000  0.62500000
   0.12500000  0.62500000  0.62500000
   0.62500000  0.87500000  0.87500000
   0.12500000  0.87500000  0.87500000
   0.87500000  0.62500000  0.37500000
   0.37500000  0.62500000  0.37500000
   0.87500000  0.87500000  0.12500000
   0.37500000  0.87500000  0.12500000
   0.87500000  0.12500000  0.87500000
   0.37500000  0.12500000  0.87500000
   0.87500000  0.37500000  0.62500000
   0.37500000  0.37500000  0.62500000
   0.62500000  0.37500000  0.87500000
   0.12500000  0.37500000  0.87500000
   0.62500000  0.12500000  0.12500000
   0.12500000  0.12500000  0.12500000
   0.87500000  0.37500000  0.12500000
   0.37500000  0.37500000  0.12500000
   0.87500000  0.62500000  0.87500000
   0.37500000  0.62500000  0.87500000
   0.62500000  0.62500000  0.12500000
   0.12500000  0.62500000  0.12500000
   0.87500000  0.12500000  0.37500000
   0.37500000  0.12500000  0.37500000
   0.62500000  0.87500000  0.37500000
   0.12500000  0.87500000  0.37500000
   0.62500000  0.37500000  0.37500000
   0.12500000  0.37500000  0.37500000
   0.62500000  0.12500000  0.62500000
   0.12500000  0.12500000  0.62500000
   0.87500000  0.87500000  0.62500000
   0.37500000  0.87500000  0.62500000
 
 position of ions in cartesian coordinates  (Angst):
   0.00000000  0.00000000  0.00000000
   5.83016746  0.00000000  0.00000000
   0.00000000  2.91508373  2.91508373
   5.83016746  2.91508373  2.91508373
   2.91508373  0.00000000  8.74525119
   8.74525119  0.00000000  8.74525119
   2.91508373  2.91508373  5.83016746
   8.74525119  2.91508373  5.83016746
   2.91508373  5.83016746  2.91508373
   8.74525119  5.83016746  2.91508373
   2.91508373  8.74525119  0.00000000
   8.74525119  8.74525119  0.00000000
   0.00000000  8.74525119  2.91508373
   5.83016746  8.74525119  2.91508373
   0.00000000  5.83016746  5.83016746
   5.83016746  5.83016746  5.83016746
   2.91508373  8.74525119  5.83016746
   8.74525119  8.74525119  5.83016746
   2.91508373  0.00000000  2.91508373
   8.74525119  0.00000000  2.91508373
   0.00000000  0.00000000  5.83016746
   5.83016746  0.00000000  5.83016746
   2.91508373  5.83016746  8.74525119
   8.74525119  5.83016746  8.74525119
   0.00000000  2.91508373  8.74525119
   5.83016746  2.91508373  8.74525119
   0.00000000  8.74525119  8.74525119
   5.83016746  8.74525119  8.74525119
   0.00000000  5.83016746  0.00000000
   5.83016746  5.83016746  0.00000000
   2.91508373  2.91508373  0.00000000
   8.74525119  2.91508373  0.00000000
   7.28770933  7.28770933  7.28770933
   1.45754187  7.28770933  7.28770933
   7.28770933 10.20279306 10.20279306
   1.45754187 10.20279306 10.20279306
  10.20279306  7.28770933  4.37262560
   4.37262560  7.28770933  4.37262560
  10.20279306 10.20279306  1.45754187
   4.37262560 10.20279306  1.45754187
  10.20279306  1.45754187 10.20279306
   4.37262560  1.45754187 10.20279306
  10.20279306  4.37262560  7.28770933
   4.37262560  4.37262560  7.28770933
   7.28770933  4.37262560 10.20279306
   1.45754187  4.37262560 10.20279306
   7.28770933  1.45754187  1.45754187
   1.45754187  1.45754187  1.45754187
  10.20279306  4.37262560  1.45754187
   4.37262560  4.37262560  1.45754187
  10.20279306  7.28770933 10.20279306
   4.37262560  7.28770933 10.20279306
   7.28770933  7.28770933  1.45754187
   1.45754187  7.28770933  1.45754187
  10.20279306  1.45754187  4.37262560
   4.37262560  1.45754187  4.37262560
   7.28770933 10.20279306  4.37262560
   1.45754187 10.20279306  4.37262560
   7.28770933  4.37262560  4.37262560
   1.45754187  4.37262560  4.37262560
   7.28770933  1.45754187  7.28770933
   1.45754187  1.45754187  7.28770933
  10.20279306 10.20279306  7.28770933
   4.37262560 10.20279306  7.28770933
 


--------------------------------------------------------------------------------------------------------


 k-point  1 :   0.0000 0.0000 0.0000  plane waves:   40243
 k-point  2 :   0.3333 0.0000 0.0000  plane waves:   40242
 k-point  3 :   0.3333 0.3333 0.0000  plane waves:   40240
 k-point  4 :   0.3333 0.3333 0.3333  plane waves:   40290

 maximum and minimum number of plane-waves per node :     10100    10033

 maximum number of plane-waves:     40290
 maximum index in each direction: 
   IXMAX=   21   IYMAX=   21   IZMAX=   21
   IXMIN=  -21   IYMIN=  -21   IZMIN=  -21

 WARNING: aliasing errors must be expected set NGX to  86 to avoid them
 WARNING: aliasing errors must be expected set NGY to  86 to avoid them
 WARNING: aliasing errors must be expected set NGZ to  86 to avoid them
 aliasing errors are usually negligible using standard VASP settings
 and one can safely disregard these warnings

 real space projection operators:
  total allocation   :      13518.00 KBytes
  max/ min on nodes  :       3420.00       3343.50


 parallel 3D FFT for wavefunctions:
    minimum data exchange during FFTs selected (reduces bandwidth)
 parallel 3D FFT for charge:
    minimum data exchange during FFTs selected (reduces bandwidth)


 total amount of memory used by VASP on root node    99469. kBytes
========================================================================

   base      :      30000. kBytes
   nonlr-proj:       6045. kBytes
   fftplans  :       4777. kBytes
   grid      :       7276. kBytes
   one-center:        248. kBytes
   wavefun   :      51123. kBytes
 
     INWAV:  cpu time    0.0000: real time    0.0000
 Broyden mixing: mesh for mixing (old mesh)
   NGX = 43   NGY = 43   NGZ = 43
  (NGX  =128   NGY  =128   NGZ  =128)
  gives a total of  79507 points

 initial charge density was supplied:
 charge density of overlapping atoms calculated
 number of electron     896.0000000 magnetization 
 keeping initial charge density in first step


--------------------------------------------------------------------------------------------------------


 Maximum index for non-local projection operator          419
 Maximum index for augmentation-charges          405 (set IRDMAX)


--------------------------------------------------------------------------------------------------------


 First call to EWALD:  gamma=   0.152
 Maximum number of real-space cells 3x 3x 3
 Maximum number of reciprocal cells 3x 3x 3

 FEWALD executed in parallel
    FEWALD:  cpu time    0.0080: real time    0.0081


----------------------------------------- Iteration    1(   1)  ---------------------------------------


    POTLOK:  cpu time    0.0200: real time    0.0215
    SETDIJ:  cpu time    0.0120: real time    0.0134
     EDDAV:  cpu time   17.8103: real time   17.8221
       DOS:  cpu time    0.0010: real time    0.0016
    --------------------------------------------
      LOOP:  cpu time   17.8453: real time   17.8633

 eigenvalue-minimisations  :  5166
 total energy-change (2. order) : 0.1575501E+05  (-0.2764844E+05)
 number of electron     896.0000000 magnetization 
 augmentation part      896.0000000 magnetization 

 Free energy of the ion-electron system (eV)
  ---------------------------------------------------
  alpha Z        PSCENC =      4696.02373623
  Ewald energy   TEWEN  =    -83746.20576352
  -Hartree energ DENC   =    -49469.52269501
  -exchange      EXHF   =         0.00000000
  -V(xc)+E(xc)   XCENC  =      4073.07432044
  PAW double counting   =    118064.89290689  -146701.77456948
  entropy T*S    EENTRO =        -0.00108916
  eigenvalues    EBANDS =       687.78533456
  atomic energy  EATOM  =    168150.74136308
  Solvation  Ediel_sol  =         0.00000000
  ---------------------------------------------------
  free energy    TOTEN  =     15755.01354402 eV

  energy without entropy =    15755.01463319  energy(sigma->0) =    15755.01408860


--------------------------------------------------------------------------------------------------------




----------------------------------------- Iteration    1(   2)  ---------------------------------------


     EDDAV:  cpu time   20.9888: real time   20.9882
       DOS:  cpu time    0.0010: real time    0.0014
    --------------------------------------------
      LOOP:  cpu time   20.9958: real time   20.9958

 eigenvalue-minimisations  :  4494
 total energy-change (2. order) :-0.1187732E+05  (-0.1066282E+05)
 number of electron     896.0000000 magnetization 
 augmentation part      896.0000000 magnetization 

 Free energy of the ion-electron system (eV)
  ---------------------------------------------------
  alpha Z        PSCENC =      4696.02373623
  Ewald energy   TEWEN  =    -83746.20576352
  -Hartree energ DENC   =    -49469.52269501
  -exchange      EXHF   =         0.00000000
  -V(xc)+E(xc)   XCENC  =      4073.07432044
  PAW double counting   =    118064.89290689  -146701.77456948
  entropy T*S    EENTRO =        -0.00133703
  eigenvalues    EBANDS =    -11189.53817859
  atomic energy  EATOM  =    168150.74136308
  Solvation  Ediel_sol  =         0.00000000
  ---------------------------------------------------
  free energy    TOTEN  =      3877.68978301 eV

  energy without entropy =     3877.69112004  energy(sigma->0) =     3877.69045153


--------------------------------------------------------------------------------------------------------




----------------------------------------- Iteration    1(   3)  ---------------------------------------


     EDDAV:  cpu time   17.0694: real time   17.0673
       DOS:  cpu time    0.0010: real time    0.0014
    --------------------------------------------
      LOOP:  cpu time   17.0774: real time   17.0770

 eigenvalue-minimisations  :  4844
 total energy-change (2. order) :-0.3445793E+04  (-0.3297145E+04)
 number of electron     896.0000000 magnetization 
 augmentation part      896.0000000 magnetization 

 Free energy of the ion-electron system (eV)
  ---------------------------------------------------
  alpha Z        PSCENC =      4696.02373623
  Ewald energy   TEWEN  =    -83746.20576352
  -Hartree energ DENC   =    -49469.52269501
  -exchange      EXHF   =         0.00000000
  -V(xc)+E(xc)   XCENC  =      4073.07432044
  PAW double counting   =    118064.89290689  -146701.77456948
  entropy T*S    EENTRO =        -0.00333234
  eigenvalues    EBANDS =    -14635.32952038
  atomic energy  EATOM  =    168150.74136308
  Solvation  Ediel_sol  =         0.00000000
  ---------------------------------------------------
  free energy    TOTEN  =       431.89644591 eV

  energy without entropy =      431.89977825  energy(sigma->0) =      431.89811208


--------------------------------------------------------------------------------------------------------




----------------------------------------- Iteration    1(   4)  ---------------------------------------


     EDDAV:  cpu time   18.4102: real time   18.4145
       DOS:  cpu time    0.0010: real time    0.0004
    --------------------------------------------
      LOOP:  cpu time   18.4182: real time   18.4225

 eigenvalue-minimisations  :  5292
 total energy-change (2. order) :-0.6633804E+03  (-0.6024838E+03)
 number of electron     896.0000000 magnetization 
 augmentation part      896.0000000 magnetization 

 Free energy of the ion-electron system (eV)
  ---------------------------------------------------
  alpha Z        PSCENC =      4696.02373623
  Ewald energy   TEWEN  =    -83746.20576352
  -Hartree energ DENC   =    -49469.52269501
  -exchange      EXHF   =         0.00000000
  -V(xc)+E(xc)   XCENC  =      4073.07432044
  PAW double counting   =    118064.89290689  -146701.77456948
  entropy T*S    EENTRO =        -0.00000000
  eigenvalues    EBANDS =    -15298.71328208
  atomic energy  EATOM  =    168150.74136308
  Solvation  Ediel_sol  =         0.00000000
  ---------------------------------------------------
  free energy    TOTEN  =      -231.48398345 eV

  energy without entropy =     -231.48398345  energy(sigma->0) =     -231.48398345


--------------------------------------------------------------------------------------------------------




----------------------------------------- Iteration    1(   5)  ---------------------------------------


     EDDAV:  cpu time   18.1102: real time   18.1086
       DOS:  cpu time    0.0010: real time    0.0013
    CHARGE:  cpu time    0.5859: real time    0.5858
    MIXING:  cpu time    0.0030: real time    0.0041
    --------------------------------------------
      LOOP:  cpu time   18.7062: real time   18.7075

 eigenvalue-minimisations  :  5180
 total energy-change (2. order) :-0.7396666E+02  (-0.7128365E+02)
 number of electron     896.0001189 magnetization 
 augmentation part      542.8073120 magnetization 

 Broyden mixing:
  rms(total) = 0.20983E+01    rms(broyden)= 0.20983E+01
  rms(prec ) = 0.23194E+01
  weight for this iteration     100.00

 Free energy of the ion-electron system (eV)
  ---------------------------------------------------
  alpha Z        PSCENC =      4696.02373623
  Ewald energy   TEWEN  =    -83746.20576352
  -Hartree energ DENC   =    -49469.52269501
  -exchange      EXHF   =         0.00000000
  -V(xc)+E(xc)   XCENC  =      4073.07432044
  PAW double counting   =    118064.89290689  -146701.77456948
  entropy T*S    EENTRO =        -0.00018586
  eigenvalues    EBANDS =    -15372.67976074
  atomic energy  EATOM  =    168150.74136308
  Solvation  Ediel_sol  =         0.00000000
  ---------------------------------------------------
  free energy    TOTEN  =      -305.45064797 eV

  energy without entropy =     -305.45046211  energy(sigma->0) =     -305.45055504


--------------------------------------------------------------------------------------------------------




----------------------------------------- Iteration    1(   6)  ---------------------------------------


    POTLOK:  cpu time    0.0200: real time    0.0197
    SETDIJ:  cpu time    0.0100: real time    0.0103
     EDDAV:  cpu time   19.7160: real time   19.7191
       DOS:  cpu time    0.0020: real time    0.0013
    CHARGE:  cpu time    0.5809: real time    0.5815
    MIXING:  cpu time    0.0030: real time    0.0029
    --------------------------------------------
      LOOP:  cpu time   20.3339: real time   20.3381

 eigenvalue-minimisations  :  5782
 total energy-change (2. order) :-0.4863719E+00  (-0.5071533E+01)
 number of electron     896.0001198 magnetization 
 augmentation part      542.9803111 magnetization 

 Broyden mixing:
  rms(total) = 0.93266E+00    rms(broyden)= 0.93265E+00
  rms(prec ) = 0.10868E+01
  weight for this iteration     100.00

 eigenvalues of (default mixing * dielectric matrix)
  average eigenvalue GAMMA=   1.6701
  1.6701

 Free energy of the ion-electron system (eV)
  ---------------------------------------------------
  alpha Z        PSCENC =      4696.02373623
  Ewald energy   TEWEN  =    -83746.20576352
  -Hartree energ DENC   =    -49397.76467034
  -exchange      EXHF   =         0.00000000
  -V(xc)+E(xc)   XCENC  =      4066.99518990
  PAW double counting   =    125646.99922116  -154291.51465221
  entropy T*S    EENTRO =        -0.00056297
  eigenvalues    EBANDS =    -15431.21088119
  atomic energy  EATOM  =    168150.74136308
  Solvation  Ediel_sol  =         0.00000000
  ---------------------------------------------------
  free energy    TOTEN  =      -305.93701987 eV

  energy without entropy =     -305.93645690  energy(sigma->0) =     -305.93673839


--------------------------------------------------------------------------------------------------------




----------------------------------------- Iteration    1(   7)  ---------------------------------------


    POTLOK:  cpu time    0.0190: real time    0.0195
    SETDIJ:  cpu time    0.0100: real time    0.0103
     EDDAV:  cpu time   18.6812: real time   18.6811
       DOS:  cpu time    0.0010: real time    0.0014
    CHARGE:  cpu time    0.5809: real time    0.5813
    MIXING:  cpu time    0.0030: real time    0.0024
    --------------------------------------------
      LOOP:  cpu time   19.2991: real time   19.2995

 eigenvalue-minimisations  :  5390
 total energy-change (2. order) : 0.1154867E+01  (-0.6804915E+00)
 number of electron     896.0001192 magnetization 
 augmentation part      542.9712851 magnetization 

 Broyden mixing:
  rms(total) = 0.22694E+00    rms(broyden)= 0.22694E+00
  rms(prec ) = 0.26733E+00
  weight for this iteration     100.00

 eigenvalues of (default mixing * dielectric matrix)
  average eigenvalue GAMMA=   1.4183
  0.9143  1.9223

 Free energy of the ion-electron system (eV)
  ---------------------------------------------------
  alpha Z        PSCENC =      4696.02373623
  Ewald energy   TEWEN  =    -83746.20576352
  -Hartree energ DENC   =    -49459.30515027
  -exchange      EXHF   =         0.00000000
  -V(xc)+E(xc)   XCENC  =      4066.51987787
  PAW double counting   =    131830.17542241  -160559.47384166
  entropy T*S    EENTRO =        -0.00057097
  eigenvalues    EBANDS =    -15283.25722579
  atomic energy  EATOM  =    168150.74136308
  Solvation  Ediel_sol  =         0.00000000
  ---------------------------------------------------
  free energy    TOTEN  =      -304.78215263 eV

  energy without entropy =     -304.78158166  energy(sigma->0) =     -304.78186714


--------------------------------------------------------------------------------------------------------




----------------------------------------- Iteration    1(   8)  ---------------------------------------


    POTLOK:  cpu time    0.0190: real time    0.0194
    SETDIJ:  cpu time    0.0100: real time    0.0102
     EDDAV:  cpu time   17.8273: real time   17.8268
       DOS:  cpu time    0.0020: real time    0.0014
    CHARGE:  cpu time    0.5849: real time    0.5846
    MIXING:  cpu time    0.0020: real time    0.0025
    --------------------------------------------
      LOOP:  cpu time   18.4482: real time   18.4483

 eigenvalue-minimisations  :  5082
 total energy-change (2. order) : 0.2480229E-01  (-0.5543038E-01)
 number of electron     896.0001190 magnetization 
 augmentation part      542.9255433 magnetization 

 Broyden mixing:
  rms(total) = 0.13032E+00    rms(broyden)= 0.13032E+00
  rms(prec ) = 0.15168E+00
  weight for this iteration     100.00

 eigenvalues of (default mixing * dielectric matrix)
  average eigenvalue GAMMA=   1.6891
  2.5332  1.1901  1.3439

 Free energy of the ion-electron system (eV)
  ---------------------------------------------------
  alpha Z        PSCENC =      4696.02373623
  Ewald energy   TEWEN  =    -83746.20576352
  -Hartree energ DENC   =    -49456.21702529
  -exchange      EXHF   =         0.00000000
  -V(xc)+E(xc)   XCENC  =      4065.92288291
  PAW double counting   =    132997.82278789  -161731.92886427
  entropy T*S    EENTRO =        -0.00057134
  eigenvalues    EBANDS =    -15280.91589602
  atomic energy  EATOM  =    168150.74136308
  Solvation  Ediel_sol  =         0.00000000
  ---------------------------------------------------
  free energy    TOTEN  =      -304.75735033 eV

  energy without entropy =     -304.75677899  energy(sigma->0) =     -304.75706466


--------------------------------------------------------------------------------------------------------




----------------------------------------- Iteration    1(   9)  ---------------------------------------


    POTLOK:  cpu time    0.0200: real time    0.0195
    SETDIJ:  cpu time    0.0100: real time    0.0102
     EDDAV:  cpu time   19.4340: real time   19.4354
       DOS:  cpu time    0.0010: real time    0.0014
    CHARGE:  cpu time    0.5829: real time    0.5832
    MIXING:  cpu time    0.0030: real time    0.0027
    --------------------------------------------
      LOOP:  cpu time   20.0540: real time   20.0559

 eigenvalue-minimisations  :  5670
 total energy-change (2. order) : 0.1407970E-01  (-0.9149983E-02)
 number of electron     896.0001191 magnetization 
 augmentation part      542.9745535 magnetization 

 Broyden mixing:
  rms(total) = 0.43352E-01    rms(broyden)= 0.43352E-01
  rms(prec ) = 0.45242E-01
  weight for this iteration     100.00

 eigenvalues of (default mixing * dielectric matrix)
  average eigenvalue GAMMA=   1.5702
  2.4515  1.8886  0.9704  0.9704

 Free energy of the ion-electron system (eV)
  ---------------------------------------------------
  alpha Z        PSCENC =      4696.02373623
  Ewald energy   TEWEN  =    -83746.20576352
  -Hartree energ DENC   =    -49444.78171098
  -exchange      EXHF   =         0.00000000
  -V(xc)+E(xc)   XCENC  =      4065.02598358
  PAW double counting   =    134142.35984099  -162874.05934501
  entropy T*S    EENTRO =        -0.00057134
  eigenvalues    EBANDS =    -15293.84680366
  atomic energy  EATOM  =    168150.74136308
  Solvation  Ediel_sol  =         0.00000000
  ---------------------------------------------------
  free energy    TOTEN  =      -304.74327063 eV

  energy without entropy =     -304.74269929  energy(sigma->0) =     -304.74298496


--------------------------------------------------------------------------------------------------------




----------------------------------------- Iteration    1(  10)  ---------------------------------------


    POTLOK:  cpu time    0.0190: real time    0.0194
    SETDIJ:  cpu time    0.0100: real time    0.0102
     EDDAV:  cpu time   17.6883: real time   17.6966
       DOS:  cpu time    0.0010: real time    0.0014
    CHARGE:  cpu time    0.5779: real time    0.5775
    MIXING:  cpu time    0.0030: real time    0.0029
    --------------------------------------------
      LOOP:  cpu time   18.3032: real time   18.3116

 eigenvalue-minimisations  :  5040
 total energy-change (2. order) :-0.9045749E-03  (-0.1311983E-02)
 number of electron     896.0001191 magnetization 
 augmentation part      542.9454674 magnetization 

 Broyden mixing:
  rms(total) = 0.16642E-01    rms(broyden)= 0.16642E-01
  rms(prec ) = 0.19111E-01
  weight for this iteration     100.00

 eigenvalues of (default mixing * dielectric matrix)
  average eigenvalue GAMMA=   1.7400
  2.6505  2.6505  1.2363  1.2363  0.9266

 Free energy of the ion-electron system (eV)
  ---------------------------------------------------
  alpha Z        PSCENC =      4696.02373623
  Ewald energy   TEWEN  =    -83746.20576352
  -Hartree energ DENC   =    -49445.83285782
  -exchange      EXHF   =         0.00000000
  -V(xc)+E(xc)   XCENC  =      4065.13633273
  PAW double counting   =    133913.31594300  -162645.91007001
  entropy T*S    EENTRO =        -0.00057134
  eigenvalues    EBANDS =    -15292.01228755
  atomic energy  EATOM  =    168150.74136308
  Solvation  Ediel_sol  =         0.00000000
  ---------------------------------------------------
  free energy    TOTEN  =      -304.74417521 eV

  energy without entropy =     -304.74360387  energy(sigma->0) =     -304.74388954


--------------------------------------------------------------------------------------------------------




----------------------------------------- Iteration    1(  11)  ---------------------------------------


    POTLOK:  cpu time    0.0180: real time    0.0195
    SETDIJ:  cpu time    0.0110: real time    0.0104
     EDDAV:  cpu time   21.4157: real time   21.4161
       DOS:  cpu time    0.0010: real time    0.0013
    CHARGE:  cpu time    0.5799: real time    0.5804
    MIXING:  cpu time    0.0030: real time    0.0030
    --------------------------------------------
      LOOP:  cpu time   22.0317: real time   22.0344

 eigenvalue-minimisations  :  6356
 total energy-change (2. order) : 0.9625641E-04  (-0.2245472E-03)
 number of electron     896.0001191 magnetization 
 augmentation part      542.9438671 magnetization 

 Broyden mixing:
  rms(total) = 0.61290E-02    rms(broyden)= 0.61290E-02
  rms(prec ) = 0.65191E-02
  weight for this iteration     100.00

 eigenvalues of (default mixing * dielectric matrix)
  average eigenvalue GAMMA=   1.5762
  2.6165  2.2626  1.5034  0.9433  1.0657  1.0657

 Free energy of the ion-electron system (eV)
  ---------------------------------------------------
  alpha Z        PSCENC =      4696.02373623
  Ewald energy   TEWEN  =    -83746.20576352
  -Hartree energ DENC   =    -49450.45500643
  -exchange      EXHF   =         0.00000000
  -V(xc)+E(xc)   XCENC  =      4065.32184585
  PAW double counting   =    133797.75258057  -162532.30864012
  entropy T*S    EENTRO =        -0.00057134
  eigenvalues    EBANDS =    -15285.61362326
  atomic energy  EATOM  =    168150.74136308
  Solvation  Ediel_sol  =         0.00000000
  ---------------------------------------------------
  free energy    TOTEN  =      -304.74407895 eV

  energy without entropy =     -304.74350761  energy(sigma->0) =     -304.74379328


--------------------------------------------------------------------------------------------------------




----------------------------------------- Iteration    1(  12)  ---------------------------------------


    POTLOK:  cpu time    0.0190: real time    0.0193
    SETDIJ:  cpu time    0.0110: real time    0.0103
     EDDAV:  cpu time   19.1331: real time   19.1451
       DOS:  cpu time    0.0010: real time    0.0013
    CHARGE:  cpu time    0.5839: real time    0.5847
    MIXING:  cpu time    0.0040: real time    0.0032
    --------------------------------------------
      LOOP:  cpu time   19.7550: real time   19.7676

 eigenvalue-minimisations  :  5558
 total energy-change (2. order) : 0.2526550E-04  (-0.3278329E-04)
 number of electron     896.0001191 magnetization 
 augmentation part      542.9482304 magnetization 

 Broyden mixing:
  rms(total) = 0.14796E-02    rms(broyden)= 0.14796E-02
  rms(prec ) = 0.16094E-02
  weight for this iteration     100.00

 eigenvalues of (default mixing * dielectric matrix)
  average eigenvalue GAMMA=   1.6789
  2.5057  2.5057  2.0657  0.9343  1.1269  1.1269  1.4867

 Free energy of the ion-electron system (eV)
  ---------------------------------------------------
  alpha Z        PSCENC =      4696.02373623
  Ewald energy   TEWEN  =    -83746.20576352
  -Hartree energ DENC   =    -49450.20975638
  -exchange      EXHF   =         0.00000000
  -V(xc)+E(xc)   XCENC  =      4065.29838148
  PAW double counting   =    133839.22102615  -162573.38953035
  entropy T*S    EENTRO =        -0.00057134
  eigenvalues    EBANDS =    -15286.22293904
  atomic energy  EATOM  =    168150.74136308
  Solvation  Ediel_sol  =         0.00000000
  ---------------------------------------------------
  free energy    TOTEN  =      -304.74405369 eV

  energy without entropy =     -304.74348235  energy(sigma->0) =     -304.74376802


--------------------------------------------------------------------------------------------------------




----------------------------------------- Iteration    1(  13)  ---------------------------------------


    POTLOK:  cpu time    0.0190: real time    0.0193
    SETDIJ:  cpu time    0.0100: real time    0.0103
     EDDAV:  cpu time   19.6320: real time   19.6348
       DOS:  cpu time    0.0020: real time    0.0014
    CHARGE:  cpu time    0.5809: real time    0.5826
    MIXING:  cpu time    0.0040: real time    0.0033
    --------------------------------------------
      LOOP:  cpu time   20.2499: real time   20.2860

 eigenvalue-minimisations  :  5726
 total energy-change (2. order) :-0.4565751E-05  (-0.3238543E-05)
 number of electron     896.0001191 magnetization 
 augmentation part      542.9483780 magnetization 

 Broyden mixing:
  rms(total) = 0.29813E-03    rms(broyden)= 0.29813E-03
  rms(prec ) = 0.39041E-03
  weight for this iteration     100.00

 eigenvalues of (default mixing * dielectric matrix)
  average eigenvalue GAMMA=   1.6454
  2.8662  2.5361  1.9342  1.3991  1.3991  0.9609  1.0339  1.0339

 Free energy of the ion-electron system (eV)
  ---------------------------------------------------
  alpha Z        PSCENC =      4696.02373623
  Ewald energy   TEWEN  =    -83746.20576352
  -Hartree energ DENC   =    -49450.39315659
  -exchange      EXHF   =         0.00000000
  -V(xc)+E(xc)   XCENC  =      4065.30293218
  PAW double counting   =    133836.77634059  -162570.69082528
  entropy T*S    EENTRO =        -0.00057134
  eigenvalues    EBANDS =    -15286.29811359
  atomic energy  EATOM  =    168150.74136308
  Solvation  Ediel_sol  =         0.00000000
  ---------------------------------------------------
  free energy    TOTEN  =      -304.74405825 eV

  energy without entropy =     -304.74348691  energy(sigma->0) =     -304.74377258


--------------------------------------------------------------------------------------------------------




----------------------------------------- Iteration    1(  14)  ---------------------------------------


    POTLOK:  cpu time    0.0190: real time    0.0195
    SETDIJ:  cpu time    0.0100: real time    0.0102
     EDDAV:  cpu time   13.4200: real time   13.4211
       DOS:  cpu time    0.0010: real time    0.0013
    --------------------------------------------
      LOOP:  cpu time   13.4530: real time   13.4554

 eigenvalue-minimisations  :  3458
 total energy-change (2. order) :-0.4256144E-06  (-0.3398842E-06)
 number of electron     896.0001191 magnetization 
 augmentation part      542.9483780 magnetization 

 Free energy of the ion-electron system (eV)
  ---------------------------------------------------
  alpha Z        PSCENC =      4696.02373623
  Ewald energy   TEWEN  =    -83746.20576352
  -Hartree energ DENC   =    -49450.48681615
  -exchange      EXHF   =         0.00000000
  -V(xc)+E(xc)   XCENC  =      4065.30585994
  PAW double counting   =    133835.58982892  -162569.51158606
  entropy T*S    EENTRO =        -0.00057134
  eigenvalues    EBANDS =    -15286.20010978
  atomic energy  EATOM  =    168150.74136308
  Solvation  Ediel_sol  =         0.00000000
  ---------------------------------------------------
  free energy    TOTEN  =      -304.74405868 eV

  energy without entropy =     -304.74348734  energy(sigma->0) =     -304.74377301


--------------------------------------------------------------------------------------------------------




 average (electrostatic) potential at core
  the test charge radii are     1.0314  0.9962
  (the norm of the test charge is              1.0000)
       1 -68.9833       2 -68.9833       3 -68.9833       4 -68.9833       5 -68.9833
       6 -68.9833       7 -68.9833       8 -68.9833       9 -68.9833      10 -68.9833
      11 -68.9833      12 -68.9833      13 -68.9833      14 -68.9833      15 -68.9833
      16 -68.9833      17 -68.9833      18 -68.9833      19 -68.9833      20 -68.9833
      21 -68.9833      22 -68.9833      23 -68.9833      24 -68.9833      25 -68.9833
      26 -68.9833      27 -68.9833      28 -68.9833      29 -68.9833      30 -68.9833
      31 -68.9833      32 -68.9833      33 -40.4102      34 -40.4102      35 -40.4102
      36 -40.4102      37 -40.4102      38 -40.4102      39 -40.4102      40 -40.4102
      41 -40.4102      42 -40.4102      43 -40.4102      44 -40.4102      45 -40.4102
      46 -40.4102      47 -40.4102      48 -40.4102      49 -40.4102      50 -40.4102
      51 -40.4102      52 -40.4102      53 -40.4102      54 -40.4102      55 -40.4102
      56 -40.4102      57 -40.4102      58 -40.4102      59 -40.4102      60 -40.4102
      61 -40.4102      62 -40.4102      63 -40.4102      64 -40.4102
 
 
 
 E-fermi :   2.2246     XC(G=0):  -9.8721     alpha+bet : -8.1811


 k-point     1 :       0.0000    0.0000    0.0000
  band No.  band energies     occupation 
      1     -32.9940      2.00000
      2     -32.9940      2.00000
      3     -32.9940      2.00000
      4     -32.9937      2.00000
      5     -32.9937      2.00000
      6     -32.9937      2.00000
      7     -32.9937      2.00000
      8     -32.9937      2.00000
      9     -32.9937      2.00000
     10     -32.9934      2.00000
     11     -32.9934      2.00000
     12     -32.9934      2.00000
     13     -32.9933      2.00000
     14     -32.9933      2.00000
     15     -32.9933      2.00000
     16     -32.9933      2.00000
     17     -32.9933      2.00000
     18     -32.9933      2.00000
     19     -32.9933      2.00000
     20     -32.9933      2.00000
     21     -32.9933      2.00000
     22     -32.9933      2.00000
     23     -32.9932      2.00000
     24     -32.9932      2.00000
     25     -32.9932      2.00000
     26     -32.9932      2.00000
     27     -32.9932      2.00000
     28     -32.9932      2.00000
     29     -32.9932      2.00000
     30     -32.9932      2.00000
     31     -32.9932      2.00000
     32     -32.9932      2.00000
     33     -32.9932      2.00000
     34     -32.9932      2.00000
     35     -32.9930      2.00000
     36     -32.9930      2.00000
     37     -32.9930      2.00000
     38     -32.9930      2.00000
     39     -32.9930      2.00000
     40     -32.9930      2.00000
     41     -32.9930      2.00000
     42     -32.9930      2.00000
     43     -32.9930      2.00000
     44     -32.9930      2.00000
     45     -32.9930      2.00000
     46     -32.9930      2.00000
     47     -32.9930      2.00000
     48     -32.9930      2.00000
     49     -32.9930      2.00000
     50     -32.9930      2.00000
     51     -32.9930      2.00000
     52     -32.9930      2.00000
     53     -32.9929      2.00000
     54     -32.9929      2.00000
     55     -32.9929      2.00000
     56     -32.9929      2.00000
     57     -32.9929      2.00000
     58     -32.9929      2.00000
     59     -32.9929      2.00000
     60     -32.9929      2.00000
     61     -32.9929      2.00000
     62     -32.9929      2.00000
     63     -32.9929      2.00000
     64     -32.9929      2.00000
     65     -32.9929      2.00000
     66     -32.9929      2.00000
     67     -32.9929      2.00000
     68     -32.9929      2.00000
     69     -32.9929      2.00000
     70     -32.9929      2.00000
     71     -32.9929      2.00000
     72     -32.9929      2.00000
     73     -32.9929      2.00000
     74     -32.9929      2.00000
     75     -32.9929      2.00000
     76     -32.9929      2.00000
     77     -32.9929      2.00000
     78     -32.9929      2.00000
     79     -32.9929      2.00000
     80     -32.9929      2.00000
     81     -32.9929      2.00000
     82     -32.9929      2.00000
     83     -32.9929      2.00000
     84     -32.9929      2.00000
     85     -32.9923      2.00000
     86     -32.9923      2.00000
     87     -32.9923      2.00000
     88     -32.9923      2.00000
     89     -32.9923      2.00000
     90     -32.9923      2.00000
     91     -32.9923      2.00000
     92     -32.9923      2.00000
     93     -32.9923      2.00000
     94     -32.9923      2.00000
     95     -32.9923      2.00000
     96     -32.9923      2.00000
     97     -32.9861      2.00000
     98     -32.9861      2.00000
     99     -32.9861      2.00000
    100     -32.9859      2.00000
    101     -32.9859      2.00000
    102     -32.9859      2.00000
    103     -32.9859      2.00000
    104     -32.9859      2.00000
    105     -32.9859      2.00000
    106     -32.9859      2.00000
    107     -32.9859      2.00000
    108     -32.9859      2.00000
    109     -32.9859      2.00000
    110     -32.9859      2.00000
    111     -32.9859      2.00000
    112     -32.9858      2.00000
    113     -32.9858      2.00000
    114     -32.9857      2.00000
    115     -32.9857      2.00000
    116     -32.9857      2.00000
    117     -32.9857      2.00000
    118     -32.9857      2.00000
    119     -32.9857      2.00000
    120     -32.9857      2.00000
    121     -32.9857      2.00000
    122     -32.9857      2.00000
    123     -32.9857      2.00000
    124     -32.9857      2.00000
    125     -32.9857      2.00000
    126     -32.9857      2.00000
    127     -32.9857      2.00000
    128     -32.9857      2.00000
    129     -32.9857      2.00000
    130     -32.9857      2.00000
    131     -32.9857      2.00000
    132     -32.9857      2.00000
    133     -32.9857      2.00000
    134     -32.9857      2.00000
    135     -32.9857      2.00000
    136     -32.9857      2.00000
    137     -32.9857      2.00000
    138     -32.9856      2.00000
    139     -32.9856      2.00000
    140     -32.9856      2.00000
    141     -32.9856      2.00000
    142     -32.9856      2.00000
    143     -32.9856      2.00000
    144     -32.9856      2.00000
    145     -32.9856      2.00000
    146     -32.9855      2.00000
    147     -32.9855      2.00000
    148     -32.9855      2.00000
    149     -32.9855      2.00000
    150     -32.9855      2.00000
    151     -32.9855      2.00000
    152     -32.9854      2.00000
    153     -32.9854      2.00000
    154     -32.9854      2.00000
    155     -32.9854      2.00000
    156     -32.9854      2.00000
    157     -32.9854      2.00000
    158     -32.9852      2.00000
    159     -32.9852      2.00000
    160     -32.9852      2.00000
    161     -12.6353      2.00000
    162     -12.6353      2.00000
    163     -12.6353      2.00000
    164     -12.6252      2.00000
    165     -12.6252      2.00000
    166     -12.6252      2.00000
    167     -12.6252      2.00000
    168     -12.6252      2.00000
    169     -12.6252      2.00000
    170     -12.6098      2.00000
    171     -12.6098      2.00000
    172     -12.6098      2.00000
    173     -12.6098      2.00000
    174     -12.6085      2.00000
    175     -12.6085      2.00000
    176     -12.6085      2.00000
    177     -12.6085      2.00000
    178     -12.6085      2.00000
    179     -12.6085      2.00000
    180     -12.6085      2.00000
    181     -12.6085      2.00000
    182     -12.6085      2.00000
    183     -12.6085      2.00000
    184     -12.6085      2.00000
    185     -12.6085      2.00000
    186     -12.6001      2.00000
    187     -12.6001      2.00000
    188     -12.6001      2.00000
    189     -12.6001      2.00000
    190     -12.6001      2.00000
    191     -12.6001      2.00000
    192     -12.5575      2.00000
    193     -12.5575      2.00000
    194     -12.5575      2.00000
    195     -12.5434      2.00000
    196     -12.5434      2.00000
    197     -12.5434      2.00000
    198     -12.5434      2.00000
    199     -12.5434      2.00000
    200     -12.5434      2.00000
    201     -12.5434      2.00000
    202     -12.5434      2.00000
    203     -12.5407      2.00000
    204     -12.5407      2.00000
    205     -12.5407      2.00000
    206     -12.5407      2.00000
    207     -12.5407      2.00000
    208     -12.5407      2.00000
    209     -12.5407      2.00000
    210     -12.5407      2.00000
    211     -12.5407      2.00000
    212     -12.5407      2.00000
    213     -12.5407      2.00000
    214     -12.5407      2.00000
    215     -12.5403      2.00000
    216     -12.5403      2.00000
    217     -12.5403      2.00000
    218     -12.5403      2.00000
    219     -12.5403      2.00000
    220     -12.5403      2.00000
    221     -12.5403      2.00000
    222     -12.5403      2.00000
    223     -12.5403      2.00000
    224     -12.5403      2.00000
    225     -12.5403      2.00000
    226     -12.5403      2.00000
    227     -12.5395      2.00000
    228     -12.5395      2.00000
    229     -12.5395      2.00000
    230     -12.5395      2.00000
    231     -12.5395      2.00000
    232     -12.5395      2.00000
    233     -12.5395      2.00000
    234     -12.5395      2.00000
    235     -12.5395      2.00000
    236     -12.5395      2.00000
    237     -12.5395      2.00000
    238     -12.5395      2.00000
    239     -12.5355      2.00000
    240     -12.5355      2.00000
    241     -12.5355      2.00000
    242     -12.5355      2.00000
    243     -12.5355      2.00000
    244     -12.5355      2.00000
    245     -12.5253      2.00000
    246     -12.5253      2.00000
    247     -12.5253      2.00000
    248     -12.5253      2.00000
    249     -12.5253      2.00000
    250     -12.5253      2.00000
    251     -12.5224      2.00000
    252     -12.5224      2.00000
    253     -12.5224      2.00000
    254     -12.5224      2.00000
    255     -12.5224      2.00000
    256     -12.5224      2.00000
    257     -12.5164      2.00000
    258     -12.5164      2.00000
    259     -12.5164      2.00000
    260     -12.5070      2.00000
    261     -12.5070      2.00000
    262     -12.5070      2.00000
    263     -12.5070      2.00000
    264     -12.5070      2.00000
    265     -12.5070      2.00000
    266     -12.5068      2.00000
    267     -12.5068      2.00000
    268     -12.5068      2.00000
    269     -12.5068      2.00000
    270     -12.5068      2.00000
    271     -12.5068      2.00000
    272     -12.5005      2.00000
    273     -12.5005      2.00000
    274     -12.5005      2.00000
    275     -12.5005      2.00000
    276     -12.5005      2.00000
    277     -12.5005      2.00000
    278     -12.5005      2.00000
    279     -12.5005      2.00000
    280     -12.5005      2.00000
    281     -12.5005      2.00000
    282     -12.5005      2.00000
    283     -12.5005      2.00000
    284     -12.4993      2.00000
    285     -12.4993      2.00000
    286     -12.4990      2.00000
    287     -12.4990      2.00000
    288     -12.4990      2.00000
    289     -12.4990      2.00000
    290     -12.4990      2.00000
    291     -12.4990      2.00000
    292     -12.4990      2.00000
    293     -12.4990      2.00000
    294     -12.4990      2.00000
    295     -12.4990      2.00000
    296     -12.4990      2.00000
    297     -12.4990      2.00000
    298     -12.4966      2.00000
    299     -12.4966      2.00000
    300     -12.4966      2.00000
    301     -12.4966      2.00000
    302     -12.4966      2.00000
    303     -12.4966      2.00000
    304     -12.4966      2.00000
    305     -12.4966      2.00000
    306     -12.4963      2.00000
    307     -12.4963      2.00000
    308     -12.4963      2.00000
    309     -12.4963      2.00000
    310     -12.4963      2.00000
    311     -12.4963      2.00000
    312     -12.4948      2.00000
    313     -12.4948      2.00000
    314     -12.4948      2.00000
    315     -12.4948      2.00000
    316     -12.4948      2.00000
    317     -12.4948      2.00000
    318     -12.4903      2.00000
    319     -12.4903      2.00000
    320     -12.4903      2.00000
    321      -9.9237      2.00000
    322      -9.1181      2.00000
    323      -9.1181      2.00000
    324      -9.1181      2.00000
    325      -9.1181      2.00000
    326      -9.1181      2.00000
    327      -9.1181      2.00000
    328      -8.5197      2.00000
    329      -8.5197      2.00000
    330      -8.5197      2.00000
    331      -8.5197      2.00000
    332      -8.5197      2.00000
    333      -8.5197      2.00000
    334      -8.5197      2.00000
    335      -8.5197      2.00000
    336      -8.5197      2.00000
    337      -8.5197      2.00000
    338      -8.5197      2.00000
    339      -8.5197      2.00000
    340      -8.4316      2.00000
    341      -8.4316      2.00000
    342      -8.4316      2.00000
    343      -8.4316      2.00000
    344      -7.8110      2.00000
    345      -7.8110      2.00000
    346      -7.8110      2.00000
    347      -7.7718      2.00000
    348      -7.7718      2.00000
    349      -7.7718      2.00000
    350      -7.7718      2.00000
    351      -7.7718      2.00000
    352      -7.7718      2.00000
    353      -4.2397      2.00000
    354      -4.2397      2.00000
    355      -4.2397      2.00000
    356      -4.0876      2.00000
    357      -4.0876      2.00000
    358      -4.0876      2.00000
    359      -4.0876      2.00000
    360      -4.0876      2.00000
    361      -4.0876      2.00000
    362      -3.9993      2.00000
    363      -3.9993      2.00000
    364      -3.9993      2.00000
    365      -3.9993      2.00000
    366      -3.2178      2.00000
    367      -3.2178      2.00000
    368      -3.2178      2.00000
    369      -3.2178      2.00000
    370      -3.2178      2.00000
    371      -3.2178      2.00000
    372      -3.2178      2.00000
    373      -3.2178      2.00000
    374      -3.2178      2.00000
    375      -3.2178      2.00000
    376      -3.2178      2.00000
    377      -3.2178      2.00000
    378      -1.8859      2.00000
    379      -1.8859      2.00000
    380      -1.8859      2.00000
    381      -1.8859      2.00000
    382      -1.8859      2.00000
    383      -1.8859      2.00000
    384      -0.9260      2.00000
    385      -0.9260      2.00000
    386      -0.9260      2.00000
    387      -0.9260      2.00000
    388      -0.9260      2.00000
    389      -0.9260      2.00000
    390      -0.7851      2.00000
    391      -0.7851      2.00000
    392      -0.7851      2.00000
    393      -0.7851      2.00000
    394      -0.7851      2.00000
    395      -0.7851      2.00000
    396      -0.7851      2.00000
    397      -0.7851      2.00000
    398      -0.7851      2.00000
    399      -0.7851      2.00000
    400      -0.7851      2.00000
    401      -0.7851      2.00000
    402      -0.7384      2.00000
    403      -0.7384      2.00000
    404      -0.7384      2.00000
    405      -0.7384      2.00000
    406      -0.7384      2.00000
    407      -0.7384      2.00000
    408      -0.1582      2.00000
    409      -0.1582      2.00000
    410      -0.1582      2.00000
    411      -0.1582      2.00000
    412      -0.1582      2.00000
    413      -0.1582      2.00000
    414       0.7317      2.00000
    415       0.7317      2.00000
    416       0.7317      2.00000
    417       0.7317      2.00000
    418       0.7317      2.00000
    419       0.7317      2.00000
    420       0.7317      2.00000
    421       0.7317      2.00000
    422       0.7317      2.00000
    423       0.7317      2.00000
    424       0.7317      2.00000
    425       0.7317      2.00000
    426       1.1429      2.00000
    427       1.1429      2.00000
    428       1.1429      2.00000
    429       1.1429      2.00000
    430       1.1429      2.00000
    431       1.1429      2.00000
    432       1.1429      2.00000
    433       1.1429      2.00000
    434       1.1429      2.00000
    435       1.1429      2.00000
    436       1.1429      2.00000
    437       1.1429      2.00000
    438       1.2092      2.00000
    439       1.2092      2.00000
    440       1.2092      2.00000
    441       1.2092      2.00000
    442       1.2092      2.00000
    443       1.2092      2.00000
    444       1.2092      2.00000
    445       1.2092      2.00000
    446       1.8843      2.00000
    447       2.2216      1.33333
    448       2.2216      1.33333
    449       2.2216      1.33333
    450       2.8425      0.00000
    451       2.8425      0.00000
    452       2.8425      0.00000
    453       2.8425      0.00000
    454       3.7246      0.00000
    455       3.7246      0.00000
    456       3.7246      0.00000
    457       3.8037      0.00000
    458       3.8037      0.00000
    459       3.8037      0.00000
    460       4.1416      0.00000
    461       4.1416      0.00000
    462       4.1416      0.00000
    463       4.1416      0.00000
    464       4.1416      0.00000
    465       4.1416      0.00000
    466       4.6231      0.00000
    467       4.6231      0.00000
    468       4.6231      0.00000
    469       4.6231      0.00000
    470       4.6231      0.00000
    471       4.6231      0.00000
    472       4.6231      0.00000
    473       4.6231      0.00000
    474       4.6231      0.00000
    475       4.6231      0.00000
    476       4.6231      0.00000
    477       4.6231      0.00000
    478       5.1132      0.00000
    479       5.1132      0.00000
    480       5.1132      0.00000
    481       5.1132      0.00000
    482       5.1132      0.00000
    483       5.1132      0.00000
    484       5.8700      0.00000
    485       5.8700      0.00000
    486       5.8700      0.00000
    487       6.3301      0.00000
    488       6.3301      0.00000
    489       6.3301      0.00000
    490       6.3301      0.00000
    491       6.3301      0.00000
    492       6.3301      0.00000
    493       6.7644      0.00000
    494       6.7644      0.00000
    495       6.7644      0.00000
    496       6.7644      0.00000
    497       6.7644      0.00000
    498       6.7644      0.00000
    499       6.7644      0.00000
    500       6.7644      0.00000
    501       6.7922      0.00000
    502       6.7922      0.00000
    503       6.7922      0.00000
    504       6.7922      0.00000
    505       6.7922      0.00000
    506       6.7922      0.00000
    507       7.2252      0.00000
    508       7.2254      0.00000
    509       7.2257      0.00000
    510       7.2261      0.00000
    511       7.2268      0.00000
    512       7.2279      0.00000
    513       7.4820      0.00000
    514       7.4821      0.00000
    515       7.4826      0.00000
    516       7.4834      0.00000
    517       7.4854      0.00000
    518       7.4868      0.00000
    519       7.4911      0.00000
    520       7.4955      0.00000
    521       7.5004      0.00000
    522       7.5063      0.00000
    523       7.5148      0.00000
[...]
  0.000   0.000  -0.000  -0.000   0.006  -0.000  -0.000   0.000   0.000   0.009   0.000  -0.000  -0.000   0.000   0.000  -0.000
  0.000  -0.000  -0.000   0.000   0.000   0.000   0.000  -0.000   0.000   0.000   1.502   0.020  -0.000  -0.000  -0.000  -0.000
  0.000   0.000   0.000   0.000   0.000  -0.000  -0.000   0.000   0.000   0.000   0.020   0.001  -0.000   0.000   0.000   0.000
  0.000   0.000   0.000   0.013  -0.000   0.000  -0.000   0.000   0.125  -0.000  -0.000   0.000   0.824  -0.000   0.000   0.012
  0.013  -0.000   0.000  -0.000   0.000   0.125  -0.000   0.000  -0.000   0.000  -0.000  -0.000  -0.000   0.824   0.000   0.000
 -0.000   0.013  -0.000   0.000   0.000  -0.000   0.125   0.000   0.000   0.000  -0.000   0.000  -0.000   0.000   0.824   0.000
  0.000   0.000  -0.000   0.001   0.000   0.000   0.000  -0.000   0.002  -0.000  -0.000   0.000   0.012   0.000  -0.000   0.000
  0.001  -0.000   0.000   0.000  -0.000   0.002  -0.000   0.000   0.000   0.000   0.000   0.000   0.000   0.012   0.000  -0.000
 -0.000   0.001  -0.000   0.000  -0.000  -0.000   0.002  -0.000   0.000  -0.000   0.000  -0.000   0.000  -0.000   0.012  -0.000


------------------------ aborting loop because EDIFF is reached ----------------------------------------


    CHARGE:  cpu time    0.6469: real time    0.6478
    FORLOC:  cpu time    0.0260: real time    0.0259
    FORNL :  cpu time    2.3216: real time    2.3228
    STRESS:  cpu time    6.9289: real time    6.9323
    FORCOR:  cpu time    0.0430: real time    0.0433
    FORHAR:  cpu time    0.0410: real time    0.0408
    MIXING:  cpu time    0.0030: real time    0.0036
    OFIELD:  cpu time    0.0010: real time    0.0004

  FORCE on cell =-STRESS in cart. coord.  units (eV):
  Direction    XX          YY          ZZ          XY          YZ          ZX
  --------------------------------------------------------------------------------------
  Alpha Z  4696.02374  4696.02374  4696.02374
  Ewald  -27915.57667-27915.57667-27915.57667     0.00000    -0.00000     0.00000
  Hartree 16483.48931 16483.48931 16483.48931    -0.00000    -0.00000    -0.00000
  E(xc)   -5209.86806 -5209.86806 -5209.86806     0.00000     0.00000    -0.00000
  Local    4031.10927  4031.10927  4031.10927     0.00000     0.00000     0.00000
  n-local   595.27129   598.68479   595.90908    -3.72676    -1.52614    -1.52615
  augment  2950.67621  2950.67621  2950.67621     0.00000     0.00000     0.00000
  Kinetic  4299.77035  4308.45768  4300.40748    -8.87163    -3.82392    -3.82393
  Fock        0.00000     0.00000     0.00000     0.00000     0.00000     0.00000
  -------------------------------------------------------------------------------------
  Total     -64.64597   -64.64597   -64.64597     0.00000     0.00000     0.00000
  in kB     -65.33095   -65.33095   -65.33095     0.00000     0.00000     0.00000
  external pressure =      -65.33 kB  Pullay stress =        0.00 kB


 VOLUME and BASIS-vectors are now :
 -----------------------------------------------------------------------------
  energy-cutoff  :      500.00
  volume of cell :     1585.38
      direct lattice vectors                 reciprocal lattice vectors
    11.660334925  0.000000000  0.000000000     0.085760830  0.000000000  0.000000000
     0.000000000 11.660334925  0.000000000     0.000000000  0.085760830  0.000000000
     0.000000000  0.000000000 11.660334925     0.000000000  0.000000000  0.085760830

  length of vectors
    11.660334925 11.660334925 11.660334925     0.085760830  0.085760830  0.085760830


 FORCES acting on ions
    electron-ion (+dipol)            ewald-force                    non-local-force                 convergence-correction
 -----------------------------------------------------------------------------------------------
   -.187E-11 -.314E-13 0.904E-13   0.959E-13 -.764E-13 -.107E-13   -.234E-16 0.491E-17 -.317E-16   -.136E-11 0.128E-12 -.115E-11
   -.841E-12 0.173E-13 0.254E-10   0.924E-13 -.426E-13 -.128E-12   -.151E-16 -.398E-17 -.981E-17   0.127E-11 -.701E-13 -.242E-11
   -.171E-11 0.474E-12 0.523E-12   0.158E-12 -.142E-13 -.995E-13   -.235E-16 0.572E-17 -.290E-16   -.407E-12 -.574E-12 -.369E-11
   -.842E-12 -.367E-11 0.878E-11   0.115E-12 -.107E-12 -.995E-13   -.181E-16 -.900E-17 -.271E-18   0.537E-12 0.871E-12 -.223E-11
   -.132E-11 0.986E-13 -.521E-11   0.853E-13 -.114E-12 0.000E+00   -.296E-16 0.193E-16 -.330E-16   0.216E-12 -.133E-12 0.217E-11
   -.206E-12 0.617E-13 0.479E-11   0.995E-13 -.711E-14 -.121E-12   -.493E-17 0.282E-17 -.154E-16   -.262E-12 0.309E-12 0.419E-11
   -.132E-11 -.217E-11 -.190E-12   0.711E-13 0.142E-13 -.156E-12   -.231E-16 0.108E-18 0.152E-17   0.631E-12 0.429E-12 0.120E-11
   -.530E-13 -.123E-10 0.104E-10   0.217E-12 -.462E-13 -.147E-12   -.379E-17 0.344E-17 -.213E-16   -.901E-12 0.128E-12 0.724E-12
   -.116E-11 0.101E-11 -.559E-11   0.146E-12 -.124E-12 -.604E-13   -.182E-16 0.393E-17 -.179E-16   0.341E-12 0.370E-12 -.140E-11
   -.205E-12 -.308E-11 0.111E-11   0.117E-12 -.131E-12 0.657E-13   -.374E-16 -.957E-17 0.428E-17   -.562E-12 0.153E-12 -.273E-11
   -.132E-11 -.561E-12 -.148E-11   0.568E-13 -.497E-13 -.711E-13   -.422E-16 0.659E-17 0.141E-17   -.461E-12 0.622E-12 -.132E-11
   -.518E-13 0.128E-10 -.581E-11   0.114E-12 -.444E-13 -.142E-13   -.166E-16 0.873E-17 -.183E-16   0.479E-12 0.148E-11 -.514E-12
   -.195E-11 0.161E-11 0.447E-12   0.853E-13 -.178E-13 -.114E-12   -.182E-16 0.550E-17 -.180E-16   -.188E-12 0.361E-12 -.320E-11
   -.764E-12 0.335E-11 -.393E-11   0.639E-13 -.355E-13 -.853E-13   -.182E-16 0.190E-17 -.300E-16   0.312E-12 -.906E-12 -.183E-11
   -.171E-11 0.954E-12 0.107E-11   0.888E-13 -.124E-12 0.355E-13   -.159E-16 0.721E-17 -.181E-16   0.114E-11 0.141E-12 0.378E-13
   -.764E-12 -.384E-11 0.990E-11   0.426E-13 -.284E-13 -.142E-13   -.335E-16 -.927E-17 -.553E-17   -.831E-12 0.342E-12 0.388E-12
   -.108E-11 0.441E-11 0.305E-14   0.114E-12 -.284E-13 -.568E-13   -.214E-16 0.510E-17 -.194E-16   0.786E-12 -.522E-12 0.803E-12
   -.536E-13 0.141E-10 0.805E-11   0.711E-13 -.355E-13 -.426E-13   -.105E-16 0.172E-16 -.107E-16   -.111E-11 -.369E-12 0.473E-13
   -.132E-11 0.365E-13 -.180E-12   0.639E-13 -.497E-13 -.185E-12   -.119E-16 -.499E-17 -.325E-17   -.937E-12 -.596E-12 -.250E-11
   -.500E-13 -.572E-13 0.133E-10   0.604E-13 0.888E-14 -.426E-13   -.234E-16 0.960E-17 -.221E-16   0.829E-12 -.350E-12 -.467E-11
   -.187E-11 0.546E-13 0.971E-12   0.284E-13 -.121E-12 -.213E-13   -.183E-16 0.894E-18 0.347E-17   0.849E-12 -.341E-12 0.726E-12
   -.686E-12 -.811E-14 -.231E-12   0.284E-13 -.114E-12 -.142E-12   -.127E-16 0.561E-17 -.218E-16   -.680E-12 -.559E-12 0.179E-11
   -.132E-11 0.119E-11 0.501E-12   0.107E-12 -.426E-13 -.711E-13   -.170E-16 0.618E-17 -.379E-18   0.752E-12 0.274E-13 0.937E-12
   -.518E-13 0.862E-11 0.228E-10   0.711E-14 -.213E-13 -.222E-12   -.623E-17 0.501E-17 -.256E-16   -.844E-12 -.450E-12 0.225E-11
   -.187E-11 0.550E-12 0.153E-11   0.995E-13 -.462E-13 0.888E-14   -.341E-16 0.131E-16 -.101E-16   0.760E-13 -.128E-11 0.322E-11
   -.678E-12 -.146E-11 0.101E-11   0.213E-13 -.114E-12 -.114E-12   -.236E-16 0.645E-17 -.217E-16   -.114E-13 -.720E-12 0.193E-11
   -.195E-11 0.156E-11 0.164E-11   0.142E-12 -.426E-13 -.142E-13   -.607E-17 -.960E-17 -.359E-16   0.513E-12 0.106E-11 0.285E-11
   -.913E-12 -.152E-10 -.265E-11   0.114E-12 -.114E-12 0.000E+00   0.922E-17 0.794E-17 -.162E-16   -.517E-12 0.500E-12 0.138E-11
   -.187E-11 0.100E-11 -.179E-13   0.924E-13 -.995E-13 -.355E-14   -.215E-16 -.247E-17 -.463E-17   -.419E-12 -.232E-12 -.434E-12
   -.681E-12 0.648E-11 -.246E-11   -.711E-14 -.782E-13 -.355E-14   -.146E-16 -.133E-17 -.300E-16   0.359E-12 -.131E-12 -.799E-12
   -.116E-11 0.324E-11 -.119E-11   0.373E-13 -.639E-13 -.139E-12   -.327E-16 0.716E-17 -.186E-16   -.586E-12 -.778E-12 -.171E-11
   -.129E-12 0.103E-10 0.200E-10   0.799E-13 -.728E-13 -.112E-12   -.960E-17 -.263E-17 0.566E-17   0.602E-12 -.180E-11 -.113E-11
   0.109E-11 0.426E-11 0.263E-10   0.000E+00 0.995E-13 0.958E-13   0.225E-17 -.623E-17 0.467E-17   -.190E-11 0.344E-12 0.158E-11
   0.625E-12 -.411E-11 0.968E-11   -.142E-13 0.128E-12 0.128E-12   0.396E-17 -.556E-17 0.796E-17   0.212E-11 0.588E-12 0.188E-11
   0.117E-11 -.186E-10 0.146E-10   -.426E-13 0.178E-13 0.142E-13   0.550E-17 -.327E-17 0.825E-17   0.718E-12 0.174E-11 0.150E-11
   0.624E-12 -.795E-12 0.103E-10   0.000E+00 0.995E-13 0.426E-13   -.759E-18 -.119E-17 0.697E-17   -.297E-12 0.127E-11 0.142E-11
   0.172E-11 -.566E-11 -.524E-11   -.651E-13 0.121E-12 0.639E-13   0.651E-17 -.634E-17 0.929E-17   -.100E-12 0.593E-12 -.254E-11
   0.625E-12 -.420E-12 -.668E-11   -.669E-13 0.185E-12 0.711E-13   0.369E-17 -.642E-17 0.634E-17   0.534E-12 -.201E-12 0.243E-13
   0.156E-11 -.113E-10 0.539E-12   -.916E-13 0.164E-12 -.762E-13   0.115E-16 0.565E-17 0.788E-17   0.943E-13 0.123E-11 -.391E-11
   0.546E-12 -.278E-11 -.977E-11   -.508E-13 0.569E-13 -.513E-14   0.114E-16 0.113E-17 0.102E-16   0.108E-12 -.117E-12 -.313E-11
   0.180E-11 -.233E-10 0.748E-11   -.426E-13 0.391E-13 0.107E-13   0.634E-17 0.146E-17 0.962E-17   -.356E-12 -.860E-12 0.283E-11
   0.546E-12 -.104E-10 -.175E-11   -.445E-13 0.128E-12 0.142E-13   0.104E-16 -.273E-17 0.984E-17   0.605E-12 -.447E-12 0.154E-12
   0.172E-11 -.154E-10 -.122E-10   -.578E-13 0.565E-13 -.712E-13   0.360E-17 -.543E-17 0.722E-17   0.522E-13 -.414E-12 0.300E-11
   0.468E-12 0.484E-11 -.118E-10   -.276E-14 0.142E-12 0.994E-13   0.659E-17 -.475E-17 0.732E-17   0.425E-12 0.720E-12 0.170E-11
   0.102E-11 0.238E-11 0.135E-10   -.853E-13 0.701E-13 0.171E-12   0.304E-17 0.107E-17 0.390E-17   0.223E-12 -.118E-11 0.119E-11
   0.547E-12 -.201E-11 0.992E-11   -.924E-13 0.737E-13 0.142E-13   0.978E-17 -.674E-17 0.106E-16   0.128E-12 -.778E-12 0.101E-11
   0.117E-11 -.127E-10 0.940E-11   -.149E-12 0.107E-12 0.115E-12   0.710E-17 0.464E-17 0.104E-16   0.213E-11 -.382E-13 -.445E-11
   0.624E-12 -.137E-11 0.983E-11   -.124E-12 0.135E-12 0.179E-12   0.721E-17 0.106E-17 0.527E-17   -.152E-11 -.437E-12 -.362E-11
   0.172E-11 0.120E-10 0.573E-12   -.457E-13 -.258E-14 0.678E-13   0.870E-17 0.159E-17 0.142E-16   -.232E-12 -.806E-12 -.301E-11
   0.624E-12 0.665E-11 -.778E-11   -.901E-13 -.969E-14 0.110E-13   0.331E-17 0.759E-18 0.953E-17   0.626E-12 0.634E-12 -.203E-11
   0.172E-11 -.575E-11 0.170E-10   -.142E-12 0.746E-13 -.711E-14   0.445E-17 -.154E-17 0.806E-17   0.202E-12 0.135E-11 0.238E-11
   0.468E-12 -.268E-11 -.172E-10   -.144E-12 0.995E-13 -.426E-13   0.889E-17 -.901E-17 0.120E-16   0.266E-12 0.792E-12 0.740E-13
   0.117E-11 0.813E-12 -.128E-10   -.156E-12 0.121E-12 0.185E-12   0.634E-17 0.121E-17 0.107E-16   0.646E-12 0.548E-12 -.178E-11
   0.780E-12 -.283E-11 0.894E-11   -.167E-12 0.149E-12 -.131E-12   0.794E-17 0.257E-18 0.131E-16   -.256E-12 0.934E-12 -.204E-11
   0.188E-11 0.882E-11 0.141E-10   -.547E-13 0.107E-12 0.103E-12   -.239E-17 0.102E-18 0.579E-17   0.576E-12 0.646E-13 -.288E-11
   0.468E-12 0.517E-11 -.306E-11   -.281E-13 0.995E-13 0.995E-13   0.566E-17 -.424E-17 0.488E-17   -.816E-13 0.676E-12 -.153E-13
   0.125E-11 0.105E-10 -.815E-12   -.711E-13 0.639E-13 0.426E-13   0.371E-17 -.541E-17 0.668E-17   -.218E-12 -.930E-12 -.147E-11
   0.468E-12 -.198E-11 0.910E-11   -.853E-13 0.141E-13 0.711E-13   0.306E-17 -.291E-17 0.108E-16   0.556E-12 -.285E-12 -.140E-11
   0.117E-11 -.255E-10 -.393E-11   -.174E-12 0.427E-13 0.000E+00   0.737E-17 -.698E-18 0.831E-17   -.972E-12 0.132E-11 -.139E-11
   0.703E-12 -.212E-11 0.892E-11   -.139E-12 0.206E-12 0.995E-13   0.241E-17 -.802E-17 0.132E-16   0.122E-11 0.696E-12 -.115E-11
   0.109E-11 -.119E-10 0.258E-11   -.171E-12 0.853E-13 -.177E-13   -.379E-18 -.318E-17 0.953E-17   -.792E-12 0.123E-12 0.412E-11
   0.547E-12 -.212E-11 0.951E-11   -.199E-12 0.114E-12 -.426E-13   0.821E-17 -.660E-17 0.910E-17   0.110E-11 -.136E-12 0.335E-11
   0.172E-11 0.166E-10 -.121E-10   -.160E-12 0.142E-12 0.171E-12   0.572E-17 -.356E-17 0.623E-17   0.325E-12 0.855E-12 0.379E-11
   0.547E-12 -.274E-11 -.130E-10   -.182E-12 0.569E-13 0.128E-12   0.515E-18 -.629E-17 0.899E-17   0.228E-12 -.147E-12 0.270E-11
 -----------------------------------------------------------------------------------------------
   0.447E-12 -.648E-10 0.168E-09   -.230E-12 0.100E-11 -.575E-12   -.424E-15 0.203E-16 -.196E-15   0.577E-11 0.480E-11 -.918E-11
 
 
 POSITION                                       TOTAL-FORCE (eV/Angst)
 -----------------------------------------------------------------------------------
      0.00000      0.00000      0.00000         0.000000      0.000000      0.000000
      5.83017      0.00000      0.00000         0.000000     -0.000000      0.000000
      0.00000      2.91508      2.91508        -0.000000     -0.000000      0.000000
      5.83017      2.91508      2.91508         0.000000     -0.000000      0.000000
      2.91508      0.00000      8.74525         0.000000      0.000000      0.000000
      8.74525      0.00000      8.74525         0.000000     -0.000000     -0.000000
      2.91508      2.91508      5.83017        -0.000000     -0.000000      0.000000
      8.74525      2.91508      5.83017        -0.000000      0.000000      0.000000
      2.91508      5.83017      2.91508        -0.000000      0.000000      0.000000
      8.74525      5.83017      2.91508         0.000000     -0.000000      0.000000
      2.91508      8.74525      0.00000         0.000000     -0.000000     -0.000000
      8.74525      8.74525      0.00000         0.000000      0.000000      0.000000
      0.00000      8.74525      2.91508         0.000000     -0.000000      0.000000
      5.83017      8.74525      2.91508         0.000000     -0.000000      0.000000
      0.00000      5.83017      5.83017        -0.000000      0.000000      0.000000
      5.83017      5.83017      5.83017         0.000000     -0.000000      0.000000
      2.91508      8.74525      5.83017        -0.000000      0.000000      0.000000
      8.74525      8.74525      5.83017         0.000000     -0.000000     -0.000000
      2.91508      0.00000      2.91508         0.000000     -0.000000     -0.000000
      8.74525      0.00000      2.91508         0.000000     -0.000000      0.000000
      0.00000      0.00000      5.83017         0.000000     -0.000000      0.000000
      5.83017      0.00000      5.83017         0.000000      0.000000      0.000000
      2.91508      5.83017      8.74525         0.000000     -0.000000     -0.000000
      8.74525      5.83017      8.74525         0.000000      0.000000      0.000000
      0.00000      2.91508      8.74525         0.000000     -0.000000     -0.000000
      5.83017      2.91508      8.74525        -0.000000      0.000000      0.000000
      0.00000      8.74525      8.74525         0.000000      0.000000      0.000000
      5.83017      8.74525      8.74525         0.000000      0.000000     -0.000000
      0.00000      5.83017      0.00000         0.000000     -0.000000      0.000000
      5.83017      5.83017      0.00000        -0.000000      0.000000      0.000000
      2.91508      2.91508      0.00000         0.000000      0.000000      0.000000
      8.74525      2.91508      0.00000         0.000000     -0.000000     -0.000000
      7.28771      7.28771      7.28771        -0.000000     -0.000000     -0.000000
      1.45754      7.28771      7.28771         0.000000     -0.000000      0.000000
      7.28771     10.20279     10.20279        -0.000000      0.000000     -0.000000
      1.45754     10.20279     10.20279        -0.000000      0.000000      0.000000
     10.20279      7.28771      4.37263        -0.000000      0.000000     -0.000000
      4.37263      7.28771      4.37263         0.000000      0.000000      0.000000
     10.20279     10.20279      1.45754        -0.000000     -0.000000     -0.000000
      4.37263     10.20279      1.45754        -0.000000      0.000000     -0.000000
     10.20279      1.45754     10.20279        -0.000000      0.000000     -0.000000
      4.37263      1.45754     10.20279        -0.000000      0.000000      0.000000
     10.20279      4.37263      7.28771        -0.000000     -0.000000     -0.000000
      4.37263      4.37263      7.28771         0.000000     -0.000000      0.000000
      7.28771      4.37263     10.20279        -0.000000     -0.000000      0.000000
      1.45754      4.37263     10.20279         0.000000      0.000000     -0.000000
      7.28771      1.45754      1.45754        -0.000000      0.000000     -0.000000
      1.45754      1.45754      1.45754        -0.000000     -0.000000      0.000000
     10.20279      4.37263      1.45754        -0.000000      0.000000      0.000000
      4.37263      4.37263      1.45754        -0.000000     -0.000000      0.000000
     10.20279      7.28771     10.20279        -0.000000     -0.000000      0.000000
      4.37263      7.28771     10.20279        -0.000000      0.000000     -0.000000
      7.28771      7.28771      1.45754        -0.000000     -0.000000     -0.000000
      1.45754      7.28771      1.45754        -0.000000      0.000000     -0.000000
     10.20279      1.45754      4.37263         0.000000      0.000000     -0.000000
      4.37263      1.45754      4.37263        -0.000000     -0.000000     -0.000000
      7.28771     10.20279      4.37263        -0.000000      0.000000     -0.000000
      1.45754     10.20279      4.37263        -0.000000     -0.000000     -0.000000
      7.28771      4.37263      4.37263        -0.000000      0.000000     -0.000000
      1.45754      4.37263      4.37263         0.000000      0.000000     -0.000000
      7.28771      1.45754      7.28771         0.000000      0.000000     -0.000000
      1.45754      1.45754      7.28771        -0.000000     -0.000000     -0.000000
     10.20279     10.20279      7.28771         0.000000     -0.000000      0.000000
      4.37263     10.20279      7.28771        -0.000000      0.000000     -0.000000
 -----------------------------------------------------------------------------------
    total drift:                                0.000000     -0.000000      0.000000


--------------------------------------------------------------------------------------------------------



  FREE ENERGIE OF THE ION-ELECTRON SYSTEM (eV)
  ---------------------------------------------------
  free  energy   TOTEN  =      -304.74405868 eV

  energy  without entropy=     -304.74348734  energy(sigma->0) =     -304.74377301
 


--------------------------------------------------------------------------------------------------------


    POTLOK:  cpu time    0.0350: real time    0.0357


--------------------------------------------------------------------------------------------------------




--------------------------------------------------------------------------------------------------------


  
 reached required accuracy - stopping structural energy minimisation
     LOOP+:  cpu time  275.0822: real time  275.1865
    4ORBIT:  cpu time    0.0000: real time    0.0000

 total amount of memory used by VASP on root node    99469. kBytes
========================================================================

   base      :      30000. kBytes
   nonlr-proj:       6045. kBytes
   fftplans  :       4777. kBytes
   grid      :       7276. kBytes
   one-center:        248. kBytes
   wavefun   :      51123. kBytes
 
  
  
 General timing and accounting informations for this job:
 ========================================================
  
                  Total CPU time used (sec):      284.676
                            User time (sec):      278.027
                          System time (sec):        6.649
                         Elapsed time (sec):      285.018
  
                   Maximum memory used (kb):      137784.
                   Average memory used (kb):           0.
  
                          Minor page faults:      2524561
                          Major page faults:           11
                 Voluntary context switches:         2747
