 vasp.5.4.1 05Feb16 (build Aug 18 2016 13:20:29) complex                        
  
 executed on           IFC91_ompi date 2018.08.03  17:32:06
 running on   28 total cores
 distrk:  each k-point on   28 cores,    1 groups
 distr:  one band on NCORES_PER_BAND=   4 cores,    7 groups


--------------------------------------------------------------------------------------------------------


 INCAR:
 POTCAR:    PAW Ga_d 06Jul2010                    
 POTCAR:    PAW Sb 04Feb1998                      
 POTCAR:    PAW Ga_d 06Jul2010                    
   VRHFIN =Ga: s2p1                                                             
   LEXCH  = CA                                                                  
   EATOM  =  2154.4592 eV,  158.3483 Ry                                         
                                                                                
   TITEL  = PAW Ga_d 06Jul2010                                                  
   LULTRA =        F    use ultrasoft PP ?                                      
   IUNSCR =        1    unscreen: 0-lin 1-nonlin 2-no                           
   RPACOR =    1.700    partial core radius                                     
   POMASS =   69.723; ZVAL   =   13.000    mass and valenz                      
   RCORE  =    2.300    outmost cutoff radius                                   
   RWIGS  =    2.300; RWIGS  =    1.217    wigner-seitz radius (au A)           
   ENMAX  =  282.829; ENMIN  =  212.121 eV                                      
   ICORE  =        3    local potential                                         
   LCOR   =        T    correct aug charges                                     
   LPAW   =        T    paw PP                                                  
   EAUG   =  490.690                                                            
   DEXC   =    0.000                                                            
   RMAX   =    2.341    core radius for proj-oper                               
   RAUG   =    1.300    factor for augmentation sphere                          
   RDEP   =    2.413    radius for radial grids                                 
   RDEPT  =    1.856    core radius for aug-charge                              
                                                                                
   Atomic configuration                                                         
    9 entries                                                                   
     n  l   j            E        occ.                                          
     1  0  0.50    -10177.9539   2.0000                                         
     2  0  0.50     -1257.0037   2.0000                                         
     2  1  1.50     -1096.5304   6.0000                                         
     3  0  0.50      -147.0449   2.0000                                         
     3  1  1.50       -98.5146   6.0000                                         
     3  2  2.50       -19.4350  10.0000                                         
     4  0  0.50        -9.1573   2.0000                                         
     4  1  0.50        -2.7399   1.0000                                         
     4  3  2.50        -2.7416   0.0000                                         
   Description                                                                  
     l       E           TYP  RCUT    TYP  RCUT                                 
     2    -19.4350265     23  2.300                                             
     2     -5.4423304     23  2.300                                             
     0     -9.1573136     23  2.300                                             
     0     68.0291300     23  2.300                                             
     1     -2.7399180     23  2.100                                             
     1     81.6349560     23  2.300                                             
     3      6.8029130     23  2.300                                             
  local pseudopotential read in
  partial core-charges read in
  partial kinetic energy density read in
  atomic valenz-charges read in
  non local Contribution for L=           2  read in
    real space projection operators read in
  non local Contribution for L=           2  read in
    real space projection operators read in
  non local Contribution for L=           0  read in
    real space projection operators read in
  non local Contribution for L=           0  read in
    real space projection operators read in
  non local Contribution for L=           1  read in
    real space projection operators read in
  non local Contribution for L=           1  read in
    real space projection operators read in
    PAW grid and wavefunctions read in
 
   number of l-projection  operators is LMAX  =           6
   number of lm-projection operators is LMMAX =          18
 
 POTCAR:    PAW Sb 04Feb1998                      
   VRHFIN =Sb: s2p3                                                             
   LEXCH  = CA                                                                  
   EATOM  =   151.6886 eV,   11.1488 Ry                                         
                                                                                
   TITEL  = PAW Sb 04Feb1998                                                    
   LULTRA =        F    use ultrasoft PP ?                                      
   IUNSCR =        1    unscreen: 0-lin 1-nonlin 2-no                           
   RPACOR =    2.200    partial core radius                                     
   POMASS =  121.750; ZVAL   =    5.000    mass and valenz                      
   RCORE  =    2.300    outmost cutoff radius                                   
   RWIGS  =    2.980; RWIGS  =    1.577    wigner-seitz radius (au A)           
   ENMAX  =  172.301; ENMIN  =  129.225 eV                                      
   ICORE  =        3    local potential                                         
   LCOR   =        T    correct aug charges                                     
   LPAW   =        T    paw PP                                                  
   EAUG   =  380.513                                                            
   DEXC   =    0.000                                                            
   RMAX   =    2.346    core radius for proj-oper                               
   RAUG   =    1.300    factor for augmentation sphere                          
   RDEP   =    2.360    radius for radial grids                                 
   RDEPT  =    2.192    core radius for aug-charge                              
                                                                                
   Atomic configuration                                                         
   13 entries                                                                   
     n  l   j            E        occ.                                          
     1  0  0.50    -30122.7615   2.0000                                         
     2  0  0.50     -4589.8142   2.0000                                         
     2  1  1.50     -4127.1422   6.0000                                         
     3  0  0.50      -899.7775   2.0000                                         
     3  1  1.50      -748.3452   6.0000                                         
     3  2  2.50      -515.7446  10.0000                                         
     4  0  0.50      -148.0021   2.0000                                         
     4  1  1.50      -101.4181   6.0000                                         
     4  2  2.50       -33.6010  10.0000                                         
     5  0  0.50       -13.0519   2.0000                                         
     5  1  0.50        -4.9988   3.0000                                         
     5  2  1.50        -5.4423   0.0000                                         
     4  3  2.50        -5.4423   0.0000                                         
   Description                                                                  
     l       E           TYP  RCUT    TYP  RCUT                                 
     0    -13.0518574     23  2.300                                             
     0     13.6058260     23  2.300                                             
     1     -4.9988158     23  2.300                                             
     1     -0.9808453     23  2.300                                             
     2     -5.4423304     23  2.300                                             
     3     -1.3605826     23  2.300                                             
  local pseudopotential read in
  partial core-charges read in
  partial kinetic energy density read in
  atomic valenz-charges read in
  non local Contribution for L=           0  read in
    real space projection operators read in
  non local Contribution for L=           0  read in
    real space projection operators read in
  non local Contribution for L=           1  read in
    real space projection operators read in
  non local Contribution for L=           1  read in
    real space projection operators read in
  non local Contribution for L=           2  read in
    real space projection operators read in
    PAW grid and wavefunctions read in
 
   number of l-projection  operators is LMAX  =           5
   number of lm-projection operators is LMMAX =          13
 
 Optimization of the real space projectors (new method)

 maximal supplied QI-value         = 16.25
 optimisation between [QCUT,QGAM] = [ 11.38, 22.75] = [ 36.24,144.96] Ry 
 Optimized for a Real-space Cutoff    1.35 Angstroem

   l    n(q)    QCUT    max X(q) W(low)/X(q) W(high)/X(q)  e(spline) 
   2      8    11.376     7.160    0.23E-03    0.28E-03    0.13E-06
   2      8    11.376     5.555    0.49E-03    0.56E-03    0.20E-06
   0      9    11.376    12.310    0.60E-04    0.47E-04    0.22E-07
   0      9    11.376     6.591    0.12E-03    0.98E-04    0.49E-07
   1      9    11.376     7.817    0.22E-03    0.30E-03    0.14E-06
   1      9    11.376     2.416    0.19E-03    0.26E-03    0.13E-06
 Optimization of the real space projectors (new method)

 maximal supplied QI-value         = 16.25
 optimisation between [QCUT,QGAM] = [ 11.38, 22.75] = [ 36.24,144.96] Ry 
 Optimized for a Real-space Cutoff    1.27 Angstroem

   l    n(q)    QCUT    max X(q) W(low)/X(q) W(high)/X(q)  e(spline) 
   0      9    11.376    19.057    0.14E-03    0.22E-03    0.90E-07
   0      9    11.376     8.980    0.17E-03    0.27E-03    0.11E-06
   1      8    11.376   126.129    0.44E-03    0.10E-03    0.17E-06
   1      8    11.376    80.918    0.43E-03    0.10E-03    0.16E-06
   2      8    11.376     7.212    0.12E-03    0.22E-03    0.44E-07
  PAW Ga_d 06Jul2010                    :
 energy of atom  1       EATOM=-2154.4592
 kinetic energy error for atom=    0.0027 (will be added to EATOM!!)
  PAW Sb 04Feb1998                      :
 energy of atom  2       EATOM= -151.6886
 kinetic energy error for atom=    0.0005 (will be added to EATOM!!)
 
 
 POSCAR: POSCAR with -8.23987132543              
  positions in direct lattice
  No initial velocities read in
 exchange correlation table for  LEXCH =        2
   RHO(1)=    0.500       N(1)  =     2000
   RHO(2)=  100.500       N(2)  =     4000
 


--------------------------------------------------------------------------------------------------------


 ion  position               nearest neighbor table
   1  0.000  0.000  0.000-  36 2.43  39 2.43  41 2.43  48 2.43
   2  0.500  0.000  0.000-  35 2.43  40 2.43  42 2.43  47 2.43
   3  0.000  0.250  0.250-  48 2.43  49 2.43  55 2.43  60 2.43
   4  0.500  0.250  0.250-  47 2.43  50 2.43  56 2.43  59 2.43
   5  0.250  0.000  0.750-  36 2.43  42 2.43  62 2.43  64 2.43
   6  0.750  0.000  0.750-  35 2.43  41 2.43  61 2.43  63 2.43
   7  0.250  0.250  0.500-  44 2.43  56 2.43  60 2.43  62 2.43
   8  0.750  0.250  0.500-  43 2.43  55 2.43  59 2.43  61 2.43
   9  0.250  0.500  0.250-  38 2.43  50 2.43  54 2.43  60 2.43
  10  0.750  0.500  0.250-  37 2.43  49 2.43  53 2.43  59 2.43
  11  0.250  0.750  0.000-  36 2.43  40 2.43  52 2.43  54 2.43
  12  0.750  0.750  0.000-  35 2.43  39 2.43  51 2.43  53 2.43
  13  0.000  0.750  0.250-  37 2.43  39 2.43  54 2.43  58 2.43
  14  0.500  0.750  0.250-  38 2.43  40 2.43  53 2.43  57 2.43
  15  0.000  0.500  0.500-  34 2.43  37 2.43  43 2.43  60 2.43
  16  0.500  0.500  0.500-  33 2.43  38 2.43  44 2.43  59 2.43
  17  0.250  0.750  0.500-  34 2.43  38 2.43  58 2.43  64 2.43
  18  0.750  0.750  0.500-  33 2.43  37 2.43  57 2.43  63 2.43
  19  0.250  0.000  0.250-  40 2.43  48 2.43  56 2.43  58 2.43
  20  0.750  0.000  0.250-  39 2.43  47 2.43  55 2.43  57 2.43
  21  0.000  0.000  0.500-  55 2.43  58 2.43  62 2.43  63 2.43
  22  0.500  0.000  0.500-  56 2.43  57 2.43  61 2.43  64 2.43
  23  0.250  0.500  0.750-  34 2.43  44 2.43  46 2.43  52 2.43
  24  0.750  0.500  0.750-  33 2.43  43 2.43  45 2.43  51 2.43
  25  0.000  0.250  0.750-  41 2.43  43 2.43  46 2.43  62 2.43
  26  0.500  0.250  0.750-  42 2.43  44 2.43  45 2.43  61 2.43
  27  0.000  0.750  0.750-  34 2.43  36 2.43  51 2.43  63 2.43
  28  0.500  0.750  0.750-  33 2.43  35 2.43  52 2.43  64 2.43
  29  0.000  0.500  0.000-  46 2.43  49 2.43  51 2.43  54 2.43
  30  0.500  0.500  0.000-  45 2.43  50 2.43  52 2.43  53 2.43
  31  0.250  0.250  0.000-  42 2.43  46 2.43  48 2.43  50 2.43
  32  0.750  0.250  0.000-  41 2.43  45 2.43  47 2.43  49 2.43
  33  0.625  0.625  0.625-  16 2.43  18 2.43  24 2.43  28 2.43
  34  0.125  0.625  0.625-  15 2.43  17 2.43  23 2.43  27 2.43
  35  0.625  0.875  0.875-   2 2.43   6 2.43  12 2.43  28 2.43
  36  0.125  0.875  0.875-   1 2.43   5 2.43  11 2.43  27 2.43
  37  0.875  0.625  0.375-  10 2.43  13 2.43  15 2.43  18 2.43
  38  0.375  0.625  0.375-   9 2.43  14 2.43  16 2.43  17 2.43
  39  0.875  0.875  0.125-   1 2.43  12 2.43  13 2.43  20 2.43
  40  0.375  0.875  0.125-   2 2.43  11 2.43  14 2.43  19 2.43
  41  0.875  0.125  0.875-   1 2.43   6 2.43  25 2.43  32 2.43
  42  0.375  0.125  0.875-   2 2.43   5 2.43  26 2.43  31 2.43
  43  0.875  0.375  0.625-   8 2.43  15 2.43  24 2.43  25 2.43
  44  0.375  0.375  0.625-   7 2.43  16 2.43  23 2.43  26 2.43
  45  0.625  0.375  0.875-  24 2.43  26 2.43  30 2.43  32 2.43
  46  0.125  0.375  0.875-  23 2.43  25 2.43  29 2.43  31 2.43
  47  0.625  0.125  0.125-   2 2.43   4 2.43  20 2.43  32 2.43
  48  0.125  0.125  0.125-   1 2.43   3 2.43  19 2.43  31 2.43
  49  0.875  0.375  0.125-   3 2.43  10 2.43  29 2.43  32 2.43
  50  0.375  0.375  0.125-   4 2.43   9 2.43  30 2.43  31 2.43
  51  0.875  0.625  0.875-  12 2.43  24 2.43  27 2.43  29 2.43
  52  0.375  0.625  0.875-  11 2.43  23 2.43  28 2.43  30 2.43
  53  0.625  0.625  0.125-  10 2.43  12 2.43  14 2.43  30 2.43
  54  0.125  0.625  0.125-   9 2.43  11 2.43  13 2.43  29 2.43
  55  0.875  0.125  0.375-   3 2.43   8 2.43  20 2.43  21 2.43
  56  0.375  0.125  0.375-   4 2.43   7 2.43  19 2.43  22 2.43
  57  0.625  0.875  0.375-  14 2.43  18 2.43  20 2.43  22 2.43
  58  0.125  0.875  0.375-  13 2.43  17 2.43  19 2.43  21 2.43
  59  0.625  0.375  0.375-   4 2.43   8 2.43  10 2.43  16 2.43
  60  0.125  0.375  0.375-   3 2.43   7 2.43   9 2.43  15 2.43
  61  0.625  0.125  0.625-   6 2.43   8 2.43  22 2.43  26 2.43
  62  0.125  0.125  0.625-   5 2.43   7 2.43  21 2.43  25 2.43
  63  0.875  0.875  0.625-   6 2.43  18 2.43  21 2.43  27 2.43
  64  0.375  0.875  0.625-   5 2.43  17 2.43  22 2.43  28 2.43
 
  LATTYP: Found a simple cubic cell.
 ALAT       =    11.2158872333
  
  Lattice vectors:
  
 A1 = (  11.2158872333,   0.0000000000,   0.0000000000)
 A2 = (   0.0000000000,  11.2158872333,   0.0000000000)
 A3 = (   0.0000000000,   0.0000000000,  11.2158872333)


Analysis of symmetry for initial positions (statically):
=====================================================================
 Subroutine PRICEL returns following result:
 
  LATTYP: Found a face centered cubic cell.
 ALAT       =     5.6079436167
  
  Lattice vectors:
  
 A1 = (   2.8039718083,   2.8039718083,  -0.0000000000)
 A2 = (   2.8039718083,   0.0000000000,  -2.8039718083)
 A3 = (   0.0000000000,   2.8039718083,  -2.8039718083)
 
  32 primitive cells build up your supercell.
 

 Routine SETGRP: Setting up the symmetry group for a 
 simple cubic supercell.


 Subroutine GETGRP returns: Found 24 space group operations
 (whereof 24 operations were pure point group operations)
 out of a pool of 48 trial point group operations.


The static configuration has the point symmetry T_d .


Analysis of symmetry for dynamics (positions and initial velocities):
=====================================================================
 Subroutine PRICEL returns following result:
 
  LATTYP: Found a face centered cubic cell.
 ALAT       =     5.6079436167
  
  Lattice vectors:
  
 A1 = (   2.8039718083,   2.8039718083,  -0.0000000000)
 A2 = (   2.8039718083,   0.0000000000,  -2.8039718083)
 A3 = (   0.0000000000,   2.8039718083,  -2.8039718083)
 
  32 primitive cells build up your supercell.
 

 Routine SETGRP: Setting up the symmetry group for a 
 simple cubic supercell.


 Subroutine GETGRP returns: Found 24 space group operations
 (whereof 24 operations were pure point group operations)
 out of a pool of 48 trial point group operations.


The dynamic configuration has the point symmetry T_d .


 Subroutine INISYM returns: Found 24 space group operations
 (whereof 24 operations are pure point group operations),
 and found    32 'primitive' translations

 
 
 KPOINTS: koint                                   

Automatic generation of k-mesh.
Space group operators:
 irot       det(A)        alpha          n_x          n_y          n_z        tau_x        tau_y        tau_z
    1     1.000000     0.000001     1.000000     0.000000     0.000000     0.000000     0.000000     0.000000
    2     1.000000   120.000000    -0.577350    -0.577350    -0.577350     0.000000     0.000000     0.000000
    3     1.000000   120.000000     0.577350     0.577350     0.577350     0.000000     0.000000     0.000000
    4    -1.000000    90.000000     0.000000     0.000000    -1.000000     0.000000     0.000000     0.000000
    5    -1.000000   180.000000     0.000000     0.707107     0.707107     0.000000     0.000000     0.000000
    6    -1.000000    90.000000     0.000000     1.000000     0.000000     0.000000     0.000000     0.000000
    7     1.000000   180.000000     0.000000     0.000000     1.000000     0.000000     0.000000     0.000000
    8     1.000000   120.000000    -0.577350     0.577350     0.577350     0.000000     0.000000     0.000000
    9     1.000000   120.000000    -0.577350     0.577350    -0.577350     0.000000     0.000000     0.000000
   10    -1.000000    90.000000     0.000000     0.000000     1.000000     0.000000     0.000000     0.000000
   11    -1.000000    90.000000    -1.000000     0.000000     0.000000     0.000000     0.000000     0.000000
   12    -1.000000   180.000000     0.707107     0.000000     0.707107     0.000000     0.000000     0.000000
   13     1.000000   120.000000     0.577350    -0.577350     0.577350     0.000000     0.000000     0.000000
   14     1.000000   120.000000    -0.577350    -0.577350     0.577350     0.000000     0.000000     0.000000
   15     1.000000   180.000000     1.000000     0.000000     0.000000     0.000000     0.000000     0.000000
   16    -1.000000    90.000000     0.000000    -1.000000     0.000000     0.000000     0.000000     0.000000
   17    -1.000000   180.000000     0.707107     0.707107     0.000000     0.000000     0.000000     0.000000
   18    -1.000000    90.000000     1.000000     0.000000     0.000000     0.000000     0.000000     0.000000
   19     1.000000   120.000000     0.577350    -0.577350    -0.577350     0.000000     0.000000     0.000000
   20     1.000000   180.000000     0.000000     1.000000     0.000000     0.000000     0.000000     0.000000
   21     1.000000   120.000000     0.577350     0.577350    -0.577350     0.000000     0.000000     0.000000
   22    -1.000000   180.000000     0.000000    -0.707107     0.707107     0.000000     0.000000     0.000000
   23    -1.000000   180.000000     0.707107    -0.707107     0.000000     0.000000     0.000000     0.000000
   24    -1.000000   180.000000     0.707107     0.000000    -0.707107     0.000000     0.000000     0.000000
 
 Subroutine IBZKPT returns following result:
 ===========================================
 
 Found      4 irreducible k-points:
 
 Following reciprocal coordinates:
            Coordinates               Weight
  0.000000  0.000000  0.000000      1.000000
  0.333333  0.000000  0.000000      6.000000
  0.333333  0.333333  0.000000     12.000000
  0.333333  0.333333  0.333333      8.000000
 
 Following cartesian coordinates:
            Coordinates               Weight
  0.000000  0.000000  0.000000      1.000000
  0.029720  0.000000  0.000000      6.000000
  0.029720  0.029720  0.000000     12.000000
  0.029720  0.029720  0.029720      8.000000
 


--------------------------------------------------------------------------------------------------------




 Dimension of arrays:
   k-points           NKPTS =      4   k-points in BZ     NKDIM =      4   number of bands    NBANDS=    350
   number of dos      NEDOS =    301   number of ions     NIONS =     64
   non local maximal  LDIM  =      6   non local SUM 2l+1 LMDIM =     18
   total plane-waves  NPLWV = 262144
   max r-space proj   IRMAX =   1961   max aug-charges    IRDMAX=  10509
   dimension x,y,z NGX =    64 NGY =   64 NGZ =   64
   dimension x,y,z NGXF=   128 NGYF=  128 NGZF=  128
   support grid    NGXF=   128 NGYF=  128 NGZF=  128
   ions per type =              32  32
 NGX,Y,Z   is equivalent  to a cutoff of   9.49,  9.49,  9.49 a.u.
 NGXF,Y,Z  is equivalent  to a cutoff of  18.97, 18.97, 18.97 a.u.


 I would recommend the setting:
   dimension x,y,z NGX =    61 NGY =   61 NGZ =   61
 SYSTEM =  unknown system                          
 POSCAR =  POSCAR with -8.23987132543              

 Startparameter for this run:
   NWRITE =      2    write-flag & timer
   PREC   = normal    normal or accurate (medium, high low for compatibility)
   ISTART =      0    job   : 0-new  1-cont  2-samecut
   ICHARG =      2    charge: 1-file 2-atom 10-const
   ISPIN  =      1    spin polarized calculation?
   LNONCOLLINEAR =      F non collinear calculations
   LSORBIT =      F    spin-orbit coupling
   INIWAV =      1    electr: 0-lowe 1-rand  2-diag
   LASPH  =      F    aspherical Exc in radial PAW
   METAGGA=      F    non-selfconsistent MetaGGA calc.

 Electronic Relaxation 1
   ENCUT  =  500.0 eV  36.75 Ry    6.06 a.u.  20.45 20.45 20.45*2*pi/ulx,y,z
   ENINI  =  500.0     initial cutoff
   ENAUG  =  490.7 eV  augmentation charge cutoff
   NELM   =     60;   NELMIN=  2; NELMDL= -5     # of ELM steps 
   EDIFF  = 0.1E-05   stopping-criterion for ELM
   LREAL  =      T    real-space projection
   NLSPLINE    = F    spline interpolate recip. space projectors
   LCOMPAT=      F    compatible to vasp.4.4
   GGA_COMPAT  = T    GGA compatible to vasp.4.4-vasp.4.6
   LMAXPAW     = -100 max onsite density
   LMAXMIX     =    2 max onsite mixed and CHGCAR
   VOSKOWN=      0    Vosko Wilk Nusair interpolation
   ROPT   =   -0.00050  -0.00050
 Ionic relaxation
   EDIFFG = -.2E-01   stopping-criterion for IOM
   NSW    =    100    number of steps for IOM
   NBLOCK =      1;   KBLOCK =    100    inner block; outer block 
   IBRION =      2    ionic relax: 0-MD 1-quasi-New 2-CG
   NFREE  =      1    steps in history (QN), initial steepest desc. (CG)
   ISIF   =      2    stress and relaxation
   IWAVPR =     11    prediction:  0-non 1-charg 2-wave 3-comb
   ISYM   =      2    0-nonsym 1-usesym 2-fastsym
   LCORR  =      T    Harris-Foulkes like correction to forces

   POTIM  = 0.5000    time-step for ionic-motion
   TEIN   =    0.0    initial temperature
   TEBEG  =    0.0;   TEEND  =   0.0 temperature during run
   SMASS  =  -3.00    Nose mass-parameter (am)
   estimated Nose-frequenzy (Omega)   =  0.10E-29 period in steps =****** mass=  -0.287E-26a.u.
   SCALEE = 1.0000    scale energy and forces
   NPACO  =    256;   APACO  = 16.0  distance and # of slots for P.C.
   PSTRESS=    0.0 pullay stress

  Mass of Ions in am
   POMASS =  69.72121.75
  Ionic Valenz
   ZVAL   =  13.00  5.00
  Atomic Wigner-Seitz radii
   RWIGS  =  -1.00 -1.00
  virtual crystal weights 
   VCA    =   1.00  1.00
   NELECT =     576.0000    total number of electrons
   NUPDOWN=      -1.0000    fix difference up-down

 DOS related values:
   EMIN   =  10.00;   EMAX   =-10.00  energy-range for DOS
   EFERMI =   0.00
   ISMEAR =     0;   SIGMA  =   0.01  broadening in eV -4-tet -1-fermi 0-gaus

 Electronic relaxation 2 (details)
   IALGO  =     38    algorithm
   LDIAG  =      T    sub-space diagonalisation (order eigenvalues)
   LSUBROT=      F    optimize rotation matrix (better conditioning)
   TURBO    =      0    0=normal 1=particle mesh
   IRESTART =      0    0=no restart 2=restart with 2 vectors
   NREBOOT  =      0    no. of reboots
   NMIN     =      0    reboot dimension
   EREF     =   0.00    reference energy to select bands
   IMIX   =      4    mixing-type and parameters
     AMIX     =   0.40;   BMIX     =  1.00
     AMIX_MAG =   1.60;   BMIX_MAG =  1.00
     AMIN     =   0.10
     WC   =   100.;   INIMIX=   1;  MIXPRE=   1;  MAXMIX= -45

 Intra band minimization:
   WEIMIN = 0.0010     energy-eigenvalue tresh-hold
   EBREAK =  0.71E-09  absolut break condition
   DEPER  =   0.30     relativ break condition  

   TIME   =   0.40     timestep for ELM

  volume/ion in A,a.u.               =      22.05       148.77
  Fermi-wavevector in a.u.,A,eV,Ry     =   1.214457  2.294990 20.067301  1.474905
  Thomas-Fermi vector in A             =   2.349876
 
 Write flags
   LWAVE  =      F    write WAVECAR
   LCHARG =      F    write CHGCAR
   LVTOT  =      F    write LOCPOT, total local potential
   LVHAR  =      F    write LOCPOT, Hartree potential only
   LELF   =      F    write electronic localiz. function (ELF)
   LORBIT =      0    0 simple, 1 ext, 2 COOP (PROOUT)


 Dipole corrections
   LMONO  =      F    monopole corrections only (constant potential shift)
   LDIPOL =      F    correct potential (dipole corrections)
   IDIPOL =      0    1-x, 2-y, 3-z, 4-all directions 
   EPSILON=  1.0000000 bulk dielectric constant

 Exchange correlation treatment:
   GGA     =    --    GGA type
   LEXCH   =     2    internal setting for exchange type
   VOSKOWN=      0    Vosko Wilk Nusair interpolation
   LHFCALC =     F    Hartree Fock is set to
   LHFONE  =     F    Hartree Fock one center treatment
   AEXX    =    0.0000 exact exchange contribution

 Linear response parameters
   LEPSILON=     F    determine dielectric tensor
   LRPA    =     F    only Hartree local field effects (RPA)
   LNABLA  =     F    use nabla operator in PAW spheres
   LVEL    =     F    velocity operator in full k-point grid
   LINTERFAST=   F  fast interpolation
   KINTER  =     0    interpolate to denser k-point grid
   CSHIFT  =0.1000    complex shift for real part using Kramers Kronig
   OMEGAMAX=  -1.0    maximum frequency
   DEG_THRESHOLD= 0.2000000E-02 threshold for treating states as degnerate
   RTIME   =    0.100 relaxation time in fs

 Orbital magnetization related:
   ORBITALMAG=     F  switch on orbital magnetization
   LCHIMAG   =     F  perturbation theory with respect to B field
   DQ        =  0.001000  dq finite difference perturbation B field



--------------------------------------------------------------------------------------------------------


 conjugate gradient relaxation of ions
 charge density and potential will be updated during run
 non-spin polarized calculation
 Variant of blocked Davidson
 Davidson routine will perform the subspace rotation
 perform sub-space diagonalisation
    after iterative eigenvector-optimisation
 modified Broyden-mixing scheme, WC =      100.0
 initial mixing is a Kerker type mixing with AMIX =  0.4000 and BMIX =      1.0000
 Hartree-type preconditioning will be used
 using additional bands           62
 real space projection scheme for non local part
 use partial core corrections
 calculate Harris-corrections to forces 
   (improved forces if not selfconsistent)
 use of overlap-Matrix (Vanderbilt PP)
 Gauss-broadening in eV      SIGMA  =   0.01


--------------------------------------------------------------------------------------------------------


  energy-cutoff  :      500.00
  volume of cell :     1410.92
      direct lattice vectors                 reciprocal lattice vectors
    11.215887233  0.000000000  0.000000000     0.089159242  0.000000000  0.000000000
     0.000000000 11.215887233  0.000000000     0.000000000  0.089159242  0.000000000
     0.000000000  0.000000000 11.215887233     0.000000000  0.000000000  0.089159242

  length of vectors
    11.215887233 11.215887233 11.215887233     0.089159242  0.089159242  0.089159242


 
 k-points in units of 2pi/SCALE and weight: koint                                   
   0.00000000  0.00000000  0.00000000       0.037
   0.02971975  0.00000000  0.00000000       0.222
   0.02971975  0.02971975  0.00000000       0.444
   0.02971975  0.02971975  0.02971975       0.296
 
 k-points in reciprocal lattice and weights: koint                                   
   0.00000000  0.00000000  0.00000000       0.037
   0.33333333  0.00000000  0.00000000       0.222
   0.33333333  0.33333333  0.00000000       0.444
   0.33333333  0.33333333  0.33333333       0.296
 
 position of ions in fractional coordinates (direct lattice) 
   0.00000000  0.00000000  0.00000000
   0.50000000  0.00000000  0.00000000
   0.00000000  0.25000000  0.25000000
   0.50000000  0.25000000  0.25000000
   0.25000000  0.00000000  0.75000000
   0.75000000  0.00000000  0.75000000
   0.25000000  0.25000000  0.50000000
   0.75000000  0.25000000  0.50000000
   0.25000000  0.50000000  0.25000000
   0.75000000  0.50000000  0.25000000
   0.25000000  0.75000000  0.00000000
   0.75000000  0.75000000  0.00000000
   0.00000000  0.75000000  0.25000000
   0.50000000  0.75000000  0.25000000
   0.00000000  0.50000000  0.50000000
   0.50000000  0.50000000  0.50000000
   0.25000000  0.75000000  0.50000000
   0.75000000  0.75000000  0.50000000
   0.25000000  0.00000000  0.25000000
   0.75000000  0.00000000  0.25000000
   0.00000000  0.00000000  0.50000000
   0.50000000  0.00000000  0.50000000
   0.25000000  0.50000000  0.75000000
   0.75000000  0.50000000  0.75000000
   0.00000000  0.25000000  0.75000000
   0.50000000  0.25000000  0.75000000
   0.00000000  0.75000000  0.75000000
   0.50000000  0.75000000  0.75000000
   0.00000000  0.50000000  0.00000000
   0.50000000  0.50000000  0.00000000
   0.25000000  0.25000000  0.00000000
   0.75000000  0.25000000  0.00000000
   0.62500000  0.62500000  0.62500000
   0.12500000  0.62500000  0.62500000
   0.62500000  0.87500000  0.87500000
   0.12500000  0.87500000  0.87500000
   0.87500000  0.62500000  0.37500000
   0.37500000  0.62500000  0.37500000
   0.87500000  0.87500000  0.12500000
   0.37500000  0.87500000  0.12500000
   0.87500000  0.12500000  0.87500000
   0.37500000  0.12500000  0.87500000
   0.87500000  0.37500000  0.62500000
   0.37500000  0.37500000  0.62500000
   0.62500000  0.37500000  0.87500000
   0.12500000  0.37500000  0.87500000
   0.62500000  0.12500000  0.12500000
   0.12500000  0.12500000  0.12500000
   0.87500000  0.37500000  0.12500000
   0.37500000  0.37500000  0.12500000
   0.87500000  0.62500000  0.87500000
   0.37500000  0.62500000  0.87500000
   0.62500000  0.62500000  0.12500000
   0.12500000  0.62500000  0.12500000
   0.87500000  0.12500000  0.37500000
   0.37500000  0.12500000  0.37500000
   0.62500000  0.87500000  0.37500000
   0.12500000  0.87500000  0.37500000
   0.62500000  0.37500000  0.37500000
   0.12500000  0.37500000  0.37500000
   0.62500000  0.12500000  0.62500000
   0.12500000  0.12500000  0.62500000
   0.87500000  0.87500000  0.62500000
   0.37500000  0.87500000  0.62500000
 
 position of ions in cartesian coordinates  (Angst):
   0.00000000  0.00000000  0.00000000
   5.60794362  0.00000000  0.00000000
   0.00000000  2.80397181  2.80397181
   5.60794362  2.80397181  2.80397181
   2.80397181  0.00000000  8.41191542
   8.41191542  0.00000000  8.41191542
   2.80397181  2.80397181  5.60794362
   8.41191542  2.80397181  5.60794362
   2.80397181  5.60794362  2.80397181
   8.41191542  5.60794362  2.80397181
   2.80397181  8.41191542  0.00000000
   8.41191542  8.41191542  0.00000000
   0.00000000  8.41191542  2.80397181
   5.60794362  8.41191542  2.80397181
   0.00000000  5.60794362  5.60794362
   5.60794362  5.60794362  5.60794362
   2.80397181  8.41191542  5.60794362
   8.41191542  8.41191542  5.60794362
   2.80397181  0.00000000  2.80397181
   8.41191542  0.00000000  2.80397181
   0.00000000  0.00000000  5.60794362
   5.60794362  0.00000000  5.60794362
   2.80397181  5.60794362  8.41191542
   8.41191542  5.60794362  8.41191542
   0.00000000  2.80397181  8.41191542
   5.60794362  2.80397181  8.41191542
   0.00000000  8.41191542  8.41191542
   5.60794362  8.41191542  8.41191542
   0.00000000  5.60794362  0.00000000
   5.60794362  5.60794362  0.00000000
   2.80397181  2.80397181  0.00000000
   8.41191542  2.80397181  0.00000000
   7.00992952  7.00992952  7.00992952
   1.40198590  7.00992952  7.00992952
   7.00992952  9.81390133  9.81390133
   1.40198590  9.81390133  9.81390133
   9.81390133  7.00992952  4.20595771
   4.20595771  7.00992952  4.20595771
   9.81390133  9.81390133  1.40198590
   4.20595771  9.81390133  1.40198590
   9.81390133  1.40198590  9.81390133
   4.20595771  1.40198590  9.81390133
   9.81390133  4.20595771  7.00992952
   4.20595771  4.20595771  7.00992952
   7.00992952  4.20595771  9.81390133
   1.40198590  4.20595771  9.81390133
   7.00992952  1.40198590  1.40198590
   1.40198590  1.40198590  1.40198590
   9.81390133  4.20595771  1.40198590
   4.20595771  4.20595771  1.40198590
   9.81390133  7.00992952  9.81390133
   4.20595771  7.00992952  9.81390133
   7.00992952  7.00992952  1.40198590
   1.40198590  7.00992952  1.40198590
   9.81390133  1.40198590  4.20595771
   4.20595771  1.40198590  4.20595771
   7.00992952  9.81390133  4.20595771
   1.40198590  9.81390133  4.20595771
   7.00992952  4.20595771  4.20595771
   1.40198590  4.20595771  4.20595771
   7.00992952  1.40198590  7.00992952
   1.40198590  1.40198590  7.00992952
   9.81390133  9.81390133  7.00992952
   4.20595771  9.81390133  7.00992952
 


--------------------------------------------------------------------------------------------------------


 k-point  1 :   0.0000 0.0000 0.0000  plane waves:   35825
 k-point  2 :   0.3333 0.0000 0.0000  plane waves:   35821
 k-point  3 :   0.3333 0.3333 0.0000  plane waves:   35841
 k-point  4 :   0.3333 0.3333 0.3333  plane waves:   35778

 maximum and minimum number of plane-waves per node :      9014     8925

 maximum number of plane-waves:     35841
 maximum index in each direction: 
   IXMAX=   20   IYMAX=   20   IZMAX=   20
   IXMIN=  -20   IYMIN=  -20   IZMIN=  -20

 WARNING: aliasing errors must be expected set NGX to  82 to avoid them
 WARNING: aliasing errors must be expected set NGY to  82 to avoid them
 WARNING: aliasing errors must be expected set NGZ to  82 to avoid them
 aliasing errors are usually negligible using standard VASP settings
 and one can safely disregard these warnings

 real space projection operators:
  total allocation   :      13424.25 KBytes
  max/ min on nodes  :       3449.00       3297.25


 parallel 3D FFT for wavefunctions:
    minimum data exchange during FFTs selected (reduces bandwidth)
 parallel 3D FFT for charge:
    minimum data exchange during FFTs selected (reduces bandwidth)


 total amount of memory used by VASP on root node    78092. kBytes
========================================================================

   base      :      30000. kBytes
   nonlr-proj:       6149. kBytes
   fftplans  :       4762. kBytes
   grid      :       7276. kBytes
   one-center:        248. kBytes
   wavefun   :      29657. kBytes
 
     INWAV:  cpu time    0.0000: real time    0.0000
 Broyden mixing: mesh for mixing (old mesh)
   NGX = 41   NGY = 41   NGZ = 41
  (NGX  =128   NGY  =128   NGZ  =128)
  gives a total of  68921 points

 initial charge density was supplied:
 charge density of overlapping atoms calculated
 number of electron     576.0000000 magnetization 
 keeping initial charge density in first step


--------------------------------------------------------------------------------------------------------


 Maximum index for non-local projection operator          459
 Maximum index for augmentation-charges          561 (set IRDMAX)


--------------------------------------------------------------------------------------------------------


 First call to EWALD:  gamma=   0.158
 Maximum number of real-space cells 3x 3x 3
 Maximum number of reciprocal cells 3x 3x 3

 FEWALD executed in parallel
    FEWALD:  cpu time    0.0060: real time    0.0053


----------------------------------------- Iteration    1(   1)  ---------------------------------------


    POTLOK:  cpu time    0.0220: real time    0.0221
    SETDIJ:  cpu time    0.0130: real time    0.0148
     EDDAV:  cpu time    7.4429: real time    7.4533
       DOS:  cpu time    0.0010: real time    0.0012
    --------------------------------------------
      LOOP:  cpu time    7.4809: real time    7.5456

 eigenvalue-minimisations  :  2842
 total energy-change (2. order) : 0.6739641E+04  (-0.2187627E+05)
 number of electron     576.0000000 magnetization 
 augmentation part      576.0000000 magnetization 

 Free energy of the ion-electron system (eV)
  ---------------------------------------------------
  alpha Z        PSCENC =      1104.61777986
  Ewald energy   TEWEN  =    -40825.76174207
  -Hartree energ DENC   =    -23172.34275693
  -exchange      EXHF   =         0.00000000
  -V(xc)+E(xc)   XCENC  =        -5.11992433
  PAW double counting   =     56547.11674902   -65584.27798732
  entropy T*S    EENTRO =        -0.00158893
  eigenvalues    EBANDS =      4878.78286020
  atomic energy  EATOM  =     73796.62808581
  Solvation  Ediel_sol  =         0.00000000
  ---------------------------------------------------
  free energy    TOTEN  =      6739.64147531 eV

  energy without entropy =     6739.64306423  energy(sigma->0) =     6739.64226977


--------------------------------------------------------------------------------------------------------




----------------------------------------- Iteration    1(   2)  ---------------------------------------


     EDDAV:  cpu time    7.4829: real time    7.4884
       DOS:  cpu time    0.0010: real time    0.0009
    --------------------------------------------
      LOOP:  cpu time    7.4869: real time    7.4933

 eigenvalue-minimisations  :  2800
 total energy-change (2. order) :-0.5276630E+04  (-0.5098016E+04)
 number of electron     576.0000000 magnetization 
 augmentation part      576.0000000 magnetization 

 Free energy of the ion-electron system (eV)
  ---------------------------------------------------
  alpha Z        PSCENC =      1104.61777986
  Ewald energy   TEWEN  =    -40825.76174207
  -Hartree energ DENC   =    -23172.34275693
  -exchange      EXHF   =         0.00000000
  -V(xc)+E(xc)   XCENC  =        -5.11992433
  PAW double counting   =     56547.11674902   -65584.27798732
  entropy T*S    EENTRO =        -0.00214685
  eigenvalues    EBANDS =      -397.84697065
  atomic energy  EATOM  =     73796.62808581
  Solvation  Ediel_sol  =         0.00000000
  ---------------------------------------------------
  free energy    TOTEN  =      1463.01108653 eV

  energy without entropy =     1463.01323338  energy(sigma->0) =     1463.01215996


--------------------------------------------------------------------------------------------------------




----------------------------------------- Iteration    1(   3)  ---------------------------------------


     EDDAV:  cpu time    8.6967: real time    8.6973
       DOS:  cpu time    0.0010: real time    0.0003
    --------------------------------------------
      LOOP:  cpu time    8.7007: real time    8.7012

 eigenvalue-minimisations  :  3388
 total energy-change (2. order) :-0.1550060E+04  (-0.1438228E+04)
 number of electron     576.0000000 magnetization 
 augmentation part      576.0000000 magnetization 

 Free energy of the ion-electron system (eV)
  ---------------------------------------------------
  alpha Z        PSCENC =      1104.61777986
  Ewald energy   TEWEN  =    -40825.76174207
  -Hartree energ DENC   =    -23172.34275693
  -exchange      EXHF   =         0.00000000
  -V(xc)+E(xc)   XCENC  =        -5.11992433
  PAW double counting   =     56547.11674902   -65584.27798732
  entropy T*S    EENTRO =        -0.00000000
  eigenvalues    EBANDS =     -1947.90936723
  atomic energy  EATOM  =     73796.62808581
  Solvation  Ediel_sol  =         0.00000000
  ---------------------------------------------------
  free energy    TOTEN  =       -87.04916320 eV

  energy without entropy =      -87.04916320  energy(sigma->0) =      -87.04916320


--------------------------------------------------------------------------------------------------------




----------------------------------------- Iteration    1(   4)  ---------------------------------------


     EDDAV:  cpu time   10.9383: real time   10.9389
       DOS:  cpu time    0.0000: real time    0.0003
    --------------------------------------------
      LOOP:  cpu time   10.9413: real time   10.9435

 eigenvalue-minimisations  :  3024
 total energy-change (2. order) :-0.1627959E+03  (-0.1578053E+03)
 number of electron     576.0000000 magnetization 
 augmentation part      576.0000000 magnetization 

 Free energy of the ion-electron system (eV)
  ---------------------------------------------------
  alpha Z        PSCENC =      1104.61777986
  Ewald energy   TEWEN  =    -40825.76174207
  -Hartree energ DENC   =    -23172.34275693
  -exchange      EXHF   =         0.00000000
  -V(xc)+E(xc)   XCENC  =        -5.11992433
  PAW double counting   =     56547.11674902   -65584.27798732
  entropy T*S    EENTRO =        -0.00000000
  eigenvalues    EBANDS =     -2110.70525466
  atomic energy  EATOM  =     73796.62808581
  Solvation  Ediel_sol  =         0.00000000
  ---------------------------------------------------
  free energy    TOTEN  =      -249.84505062 eV

  energy without entropy =     -249.84505062  energy(sigma->0) =     -249.84505062


--------------------------------------------------------------------------------------------------------




----------------------------------------- Iteration    1(   5)  ---------------------------------------


     EDDAV:  cpu time   10.1635: real time   10.1662
       DOS:  cpu time    0.0010: real time    0.0003
    CHARGE:  cpu time    0.4129: real time    0.4136
    MIXING:  cpu time    0.0040: real time    0.0048
    --------------------------------------------
      LOOP:  cpu time   10.5834: real time   10.5882

 eigenvalue-minimisations  :  4102
 total energy-change (2. order) :-0.1384497E+02  (-0.1374247E+02)
 number of electron     575.9996650 magnetization 
 augmentation part      239.6601648 magnetization 

 Broyden mixing:
  rms(total) = 0.27413E+01    rms(broyden)= 0.27413E+01
  rms(prec ) = 0.29329E+01
  weight for this iteration     100.00

 Free energy of the ion-electron system (eV)
  ---------------------------------------------------
  alpha Z        PSCENC =      1104.61777986
  Ewald energy   TEWEN  =    -40825.76174207
  -Hartree energ DENC   =    -23172.34275693
  -exchange      EXHF   =         0.00000000
  -V(xc)+E(xc)   XCENC  =        -5.11992433
  PAW double counting   =     56547.11674902   -65584.27798732
  entropy T*S    EENTRO =        -0.00000000
  eigenvalues    EBANDS =     -2124.55022846
  atomic energy  EATOM  =     73796.62808581
  Solvation  Ediel_sol  =         0.00000000
  ---------------------------------------------------
  free energy    TOTEN  =      -263.69002442 eV

  energy without entropy =     -263.69002442  energy(sigma->0) =     -263.69002442


--------------------------------------------------------------------------------------------------------




----------------------------------------- Iteration    1(   6)  ---------------------------------------


    POTLOK:  cpu time    0.0200: real time    0.0199
    SETDIJ:  cpu time    0.0120: real time    0.0113
     EDDAV:  cpu time    8.8257: real time    8.8292
       DOS:  cpu time    0.0000: real time    0.0003
    CHARGE:  cpu time    0.4109: real time    0.4110
    MIXING:  cpu time    0.0040: real time    0.0033
    --------------------------------------------
      LOOP:  cpu time    9.2746: real time    9.2784

 eigenvalue-minimisations  :  3444
 total energy-change (2. order) : 0.4647273E+01  (-0.5514599E+00)
 number of electron     575.9996642 magnetization 
 augmentation part      240.5955893 magnetization 

 Broyden mixing:
  rms(total) = 0.15304E+01    rms(broyden)= 0.15304E+01
  rms(prec ) = 0.16412E+01
  weight for this iteration     100.00

 eigenvalues of (default mixing * dielectric matrix)
  average eigenvalue GAMMA=   2.2376
  2.2376

 Free energy of the ion-electron system (eV)
  ---------------------------------------------------
  alpha Z        PSCENC =      1104.61777986
  Ewald energy   TEWEN  =    -40825.76174207
  -Hartree energ DENC   =    -23111.58212517
  -exchange      EXHF   =         0.00000000
  -V(xc)+E(xc)   XCENC  =        -7.36551200
  PAW double counting   =     64053.62166594   -73077.13260101
  entropy T*S    EENTRO =        -0.00000000
  eigenvalues    EBANDS =     -2192.06830294
  atomic energy  EATOM  =     73796.62808581
  Solvation  Ediel_sol  =         0.00000000
  ---------------------------------------------------
  free energy    TOTEN  =      -259.04275159 eV

  energy without entropy =     -259.04275159  energy(sigma->0) =     -259.04275159


--------------------------------------------------------------------------------------------------------




----------------------------------------- Iteration    1(   7)  ---------------------------------------


    POTLOK:  cpu time    0.0190: real time    0.0198
    SETDIJ:  cpu time    0.0120: real time    0.0113
     EDDAV:  cpu time    8.9366: real time    8.9467
       DOS:  cpu time    0.0000: real time    0.0003
    CHARGE:  cpu time    0.4219: real time    0.4218
    MIXING:  cpu time    0.0020: real time    0.0025
    --------------------------------------------
      LOOP:  cpu time    9.3946: real time    9.4058

 eigenvalue-minimisations  :  3248
 total energy-change (2. order) : 0.1858318E+01  (-0.5253090E+00)
 number of electron     575.9996641 magnetization 
 augmentation part      241.2295050 magnetization 

 Broyden mixing:
  rms(total) = 0.20103E+00    rms(broyden)= 0.20103E+00
  rms(prec ) = 0.21277E+00
  weight for this iteration     100.00

 eigenvalues of (default mixing * dielectric matrix)
  average eigenvalue GAMMA=   1.7346
  0.9813  2.4880

 Free energy of the ion-electron system (eV)
  ---------------------------------------------------
  alpha Z        PSCENC =      1104.61777986
  Ewald energy   TEWEN  =    -40825.76174207
  -Hartree energ DENC   =    -23112.44991164
  -exchange      EXHF   =         0.00000000
  -V(xc)+E(xc)   XCENC  =        -6.28213349
  PAW double counting   =     76409.51104965   -85485.68026606
  entropy T*S    EENTRO =        -0.00000000
  eigenvalues    EBANDS =     -2137.76729567
  atomic energy  EATOM  =     73796.62808581
  Solvation  Ediel_sol  =         0.00000000
  ---------------------------------------------------
  free energy    TOTEN  =      -257.18443361 eV

  energy without entropy =     -257.18443361  energy(sigma->0) =     -257.18443361


--------------------------------------------------------------------------------------------------------




----------------------------------------- Iteration    1(   8)  ---------------------------------------


    POTLOK:  cpu time    0.0200: real time    0.0198
    SETDIJ:  cpu time    0.0110: real time    0.0116
     EDDAV:  cpu time    8.5147: real time    8.5217
       DOS:  cpu time    0.0010: real time    0.0003
    CHARGE:  cpu time    0.4099: real time    0.4107
    MIXING:  cpu time    0.0030: real time    0.0025
    --------------------------------------------
      LOOP:  cpu time    8.9626: real time    8.9705

 eigenvalue-minimisations  :  3290
 total energy-change (2. order) :-0.2852115E-01  (-0.4638259E-01)
 number of electron     575.9996643 magnetization 
 augmentation part      241.0894652 magnetization 

 Broyden mixing:
  rms(total) = 0.85219E-01    rms(broyden)= 0.85219E-01
  rms(prec ) = 0.94717E-01
  weight for this iteration     100.00

 eigenvalues of (default mixing * dielectric matrix)
  average eigenvalue GAMMA=   1.8185
  2.5325  1.2868  1.6362

 Free energy of the ion-electron system (eV)
  ---------------------------------------------------
  alpha Z        PSCENC =      1104.61777986
  Ewald energy   TEWEN  =    -40825.76174207
  -Hartree energ DENC   =    -23118.72927630
  -exchange      EXHF   =         0.00000000
  -V(xc)+E(xc)   XCENC  =        -5.72933242
  PAW double counting   =     77847.00496746   -86937.05711487
  entropy T*S    EENTRO =        -0.00000000
  eigenvalues    EBANDS =     -2118.18632223
  atomic energy  EATOM  =     73796.62808581
  Solvation  Ediel_sol  =         0.00000000
  ---------------------------------------------------
  free energy    TOTEN  =      -257.21295476 eV

  energy without entropy =     -257.21295476  energy(sigma->0) =     -257.21295476


--------------------------------------------------------------------------------------------------------




----------------------------------------- Iteration    1(   9)  ---------------------------------------


    POTLOK:  cpu time    0.0190: real time    0.0197
    SETDIJ:  cpu time    0.0110: real time    0.0113
     EDDAV:  cpu time    9.6445: real time    9.6476
       DOS:  cpu time    0.0000: real time    0.0003
    CHARGE:  cpu time    0.4089: real time    0.4088
    MIXING:  cpu time    0.0030: real time    0.0026
    --------------------------------------------
      LOOP:  cpu time   10.0885: real time   10.0937

 eigenvalue-minimisations  :  3836
 total energy-change (2. order) : 0.1664753E-02  (-0.6811448E-02)
 number of electron     575.9996641 magnetization 
 augmentation part      241.1125074 magnetization 

 Broyden mixing:
  rms(total) = 0.28950E-01    rms(broyden)= 0.28950E-01
  rms(prec ) = 0.32512E-01
  weight for this iteration     100.00

 eigenvalues of (default mixing * dielectric matrix)
  average eigenvalue GAMMA=   1.7267
  2.4269  2.4269  1.0265  1.0265

 Free energy of the ion-electron system (eV)
  ---------------------------------------------------
  alpha Z        PSCENC =      1104.61777986
  Ewald energy   TEWEN  =    -40825.76174207
  -Hartree energ DENC   =    -23112.64931565
  -exchange      EXHF   =         0.00000000
  -V(xc)+E(xc)   XCENC  =        -5.76564919
  PAW double counting   =     78131.57765155   -87216.54466511
  entropy T*S    EENTRO =        -0.00000000
  eigenvalues    EBANDS =     -2129.31343520
  atomic energy  EATOM  =     73796.62808581
  Solvation  Ediel_sol  =         0.00000000
  ---------------------------------------------------
  free energy    TOTEN  =      -257.21129001 eV

  energy without entropy =     -257.21129001  energy(sigma->0) =     -257.21129001


--------------------------------------------------------------------------------------------------------




----------------------------------------- Iteration    1(  10)  ---------------------------------------


    POTLOK:  cpu time    0.0190: real time    0.0197
    SETDIJ:  cpu time    0.0110: real time    0.0113
     EDDAV:  cpu time    9.2026: real time    9.2086
       DOS:  cpu time    0.0000: real time    0.0003
    CHARGE:  cpu time    0.4339: real time    0.4338
    MIXING:  cpu time    0.0030: real time    0.0028
    --------------------------------------------
      LOOP:  cpu time    9.6715: real time    9.6803

 eigenvalue-minimisations  :  3626
 total energy-change (2. order) : 0.1005042E-02  (-0.1097264E-02)
 number of electron     575.9996642 magnetization 
 augmentation part      241.0587381 magnetization 

 Broyden mixing:
  rms(total) = 0.92410E-02    rms(broyden)= 0.92410E-02
  rms(prec ) = 0.10692E-01
  weight for this iteration     100.00

 eigenvalues of (default mixing * dielectric matrix)
  average eigenvalue GAMMA=   1.6587
  2.3820  2.3820  1.4542  1.2410  0.8341

 Free energy of the ion-electron system (eV)
  ---------------------------------------------------
  alpha Z        PSCENC =      1104.61777986
  Ewald energy   TEWEN  =    -40825.76174207
  -Hartree energ DENC   =    -23115.22932051
  -exchange      EXHF   =         0.00000000
  -V(xc)+E(xc)   XCENC  =        -5.62646974
  PAW double counting   =     77929.09295777   -87016.67871894
  entropy T*S    EENTRO =        -0.00000000
  eigenvalues    EBANDS =     -2124.25285714
  atomic energy  EATOM  =     73796.62808581
  Solvation  Ediel_sol  =         0.00000000
  ---------------------------------------------------
  free energy    TOTEN  =      -257.21028496 eV

  energy without entropy =     -257.21028496  energy(sigma->0) =     -257.21028496


--------------------------------------------------------------------------------------------------------




----------------------------------------- Iteration    1(  11)  ---------------------------------------


    POTLOK:  cpu time    0.0200: real time    0.0199
    SETDIJ:  cpu time    0.0120: real time    0.0118
     EDDAV:  cpu time   10.6484: real time   10.6538
       DOS:  cpu time    0.0000: real time    0.0003
    CHARGE:  cpu time    0.4129: real time    0.4131
    MIXING:  cpu time    0.0030: real time    0.0031
    --------------------------------------------
      LOOP:  cpu time   11.0983: real time   11.1055

 eigenvalue-minimisations  :  3836
 total energy-change (2. order) :-0.4755563E-04  (-0.1711513E-03)
 number of electron     575.9996642 magnetization 
 augmentation part      241.0566557 magnetization 

 Broyden mixing:
  rms(total) = 0.58834E-02    rms(broyden)= 0.58834E-02
  rms(prec ) = 0.68553E-02
  weight for this iteration     100.00

 eigenvalues of (default mixing * dielectric matrix)
  average eigenvalue GAMMA=   1.6864
  2.6782  2.3827  1.9545  0.9610  0.9610  1.1810

 Free energy of the ion-electron system (eV)
  ---------------------------------------------------
  alpha Z        PSCENC =      1104.61777986
  Ewald energy   TEWEN  =    -40825.76174207
  -Hartree energ DENC   =    -23115.20109002
  -exchange      EXHF   =         0.00000000
  -V(xc)+E(xc)   XCENC  =        -5.61708927
  PAW double counting   =     77848.84261159   -86936.74717182
  entropy T*S    EENTRO =        -0.00000000
  eigenvalues    EBANDS =     -2123.97171661
  atomic energy  EATOM  =     73796.62808581
  Solvation  Ediel_sol  =         0.00000000
  ---------------------------------------------------
  free energy    TOTEN  =      -257.21033252 eV

  energy without entropy =     -257.21033252  energy(sigma->0) =     -257.21033252


--------------------------------------------------------------------------------------------------------




----------------------------------------- Iteration    1(  12)  ---------------------------------------


    POTLOK:  cpu time    0.0190: real time    0.0196
    SETDIJ:  cpu time    0.0110: real time    0.0115
     EDDAV:  cpu time    9.2316: real time    9.2367
       DOS:  cpu time    0.0000: real time    0.0003
    CHARGE:  cpu time    0.4099: real time    0.4097
    MIXING:  cpu time    0.0030: real time    0.0031
    --------------------------------------------
      LOOP:  cpu time    9.6795: real time    9.6844

 eigenvalue-minimisations  :  3626
 total energy-change (2. order) : 0.1262515E-04  (-0.1633035E-04)
 number of electron     575.9996642 magnetization 
 augmentation part      241.0605577 magnetization 

 Broyden mixing:
  rms(total) = 0.14558E-02    rms(broyden)= 0.14558E-02
  rms(prec ) = 0.16504E-02
  weight for this iteration     100.00

 eigenvalues of (default mixing * dielectric matrix)
  average eigenvalue GAMMA=   1.6472
  2.6610  2.3934  1.7481  1.7481  1.0503  1.0503  0.8790

 Free energy of the ion-electron system (eV)
  ---------------------------------------------------
  alpha Z        PSCENC =      1104.61777986
  Ewald energy   TEWEN  =    -40825.76174207
  -Hartree energ DENC   =    -23114.90956904
  -exchange      EXHF   =         0.00000000
  -V(xc)+E(xc)   XCENC  =        -5.60736130
  PAW double counting   =     77891.15038164   -86979.15079404
  entropy T*S    EENTRO =        -0.00000000
  eigenvalues    EBANDS =     -2124.17710075
  atomic energy  EATOM  =     73796.62808581
  Solvation  Ediel_sol  =         0.00000000
  ---------------------------------------------------
  free energy    TOTEN  =      -257.21031989 eV

  energy without entropy =     -257.21031989  energy(sigma->0) =     -257.21031989


--------------------------------------------------------------------------------------------------------




----------------------------------------- Iteration    1(  13)  ---------------------------------------


    POTLOK:  cpu time    0.0190: real time    0.0196
    SETDIJ:  cpu time    0.0120: real time    0.0115
     EDDAV:  cpu time    8.9436: real time    8.9480
       DOS:  cpu time    0.0000: real time    0.0003
    CHARGE:  cpu time    0.4279: real time    0.4279
    MIXING:  cpu time    0.0040: real time    0.0033
    --------------------------------------------
      LOOP:  cpu time    9.4086: real time    9.4139

 eigenvalue-minimisations  :  3500
 total energy-change (2. order) : 0.2429151E-05  (-0.3116139E-05)
 number of electron     575.9996642 magnetization 
 augmentation part      241.0619720 magnetization 

 Broyden mixing:
  rms(total) = 0.66957E-03    rms(broyden)= 0.66957E-03
  rms(prec ) = 0.80010E-03
  weight for this iteration     100.00

 eigenvalues of (default mixing * dielectric matrix)
  average eigenvalue GAMMA=   1.6580
  2.7075  2.3017  2.3017  1.6980  1.3288  1.0161  1.0161  0.8943

 Free energy of the ion-electron system (eV)
  ---------------------------------------------------
  alpha Z        PSCENC =      1104.61777986
  Ewald energy   TEWEN  =    -40825.76174207
  -Hartree energ DENC   =    -23114.90118764
  -exchange      EXHF   =         0.00000000
  -V(xc)+E(xc)   XCENC  =        -5.61131444
  PAW double counting   =     77900.93014929   -86988.74409883
  entropy T*S    EENTRO =        -0.00000000
  eigenvalues    EBANDS =     -2124.36798945
  atomic energy  EATOM  =     73796.62808581
  Solvation  Ediel_sol  =         0.00000000
  ---------------------------------------------------
  free energy    TOTEN  =      -257.21031746 eV

  energy without entropy =     -257.21031746  energy(sigma->0) =     -257.21031746


--------------------------------------------------------------------------------------------------------




----------------------------------------- Iteration    1(  14)  ---------------------------------------


    POTLOK:  cpu time    0.0200: real time    0.0198
    SETDIJ:  cpu time    0.0110: real time    0.0117
     EDDAV:  cpu time    7.1359: real time    7.5546
       DOS:  cpu time    0.0000: real time    0.0003
    CHARGE:  cpu time    0.4099: real time    0.4097
    MIXING:  cpu time    0.0040: real time    0.0036
    --------------------------------------------
      LOOP:  cpu time    7.5828: real time    8.0031

 eigenvalue-minimisations  :  2590
 total energy-change (2. order) : 0.1280248E-05  (-0.5247303E-06)
 number of electron     575.9996642 magnetization 
 augmentation part      241.0627556 magnetization 

 Broyden mixing:
  rms(total) = 0.13107E-03    rms(broyden)= 0.13106E-03
  rms(prec ) = 0.14564E-03
  weight for this iteration     100.00

 eigenvalues of (default mixing * dielectric matrix)
  average eigenvalue GAMMA=   1.6442
  2.8435  2.6414  2.0143  1.6767  1.6767  1.0489  1.0489  0.9239  0.9239

 Free energy of the ion-electron system (eV)
  ---------------------------------------------------
  alpha Z        PSCENC =      1104.61777986
  Ewald energy   TEWEN  =    -40825.76174207
  -Hartree energ DENC   =    -23114.92078758
  -exchange      EXHF   =         0.00000000
  -V(xc)+E(xc)   XCENC  =        -5.61224026
  PAW double counting   =     77897.92596400   -86985.69405648
  entropy T*S    EENTRO =        -0.00000000
  eigenvalues    EBANDS =     -2124.39331946
  atomic energy  EATOM  =     73796.62808581
  Solvation  Ediel_sol  =         0.00000000
  ---------------------------------------------------
  free energy    TOTEN  =      -257.21031618 eV

  energy without entropy =     -257.21031618  energy(sigma->0) =     -257.21031618


--------------------------------------------------------------------------------------------------------




----------------------------------------- Iteration    1(  15)  ---------------------------------------


    POTLOK:  cpu time    0.0200: real time    0.0197
    SETDIJ:  cpu time    0.0110: real time    0.0115
     EDDAV:  cpu time    5.4542: real time    5.4553
       DOS:  cpu time    0.0000: real time    0.0003
    --------------------------------------------
      LOOP:  cpu time    5.4872: real time    5.4901

 eigenvalue-minimisations  :  1750
 total energy-change (2. order) :-0.8298957E-07  (-0.8720522E-07)
 number of electron     575.9996642 magnetization 
 augmentation part      241.0627556 magnetization 

 Free energy of the ion-electron system (eV)
  ---------------------------------------------------
  alpha Z        PSCENC =      1104.61777986
  Ewald energy   TEWEN  =    -40825.76174207
  -Hartree energ DENC   =    -23114.91878762
  -exchange      EXHF   =         0.00000000
  -V(xc)+E(xc)   XCENC  =        -5.61239710
  PAW double counting   =     77896.63666672   -86984.38764428
  entropy T*S    EENTRO =        -0.00000000
  eigenvalues    EBANDS =     -2124.41227760
  atomic energy  EATOM  =     73796.62808581
  Solvation  Ediel_sol  =         0.00000000
  ---------------------------------------------------
  free energy    TOTEN  =      -257.21031627 eV

  energy without entropy =     -257.21031627  energy(sigma->0) =     -257.21031627


--------------------------------------------------------------------------------------------------------




 average (electrostatic) potential at core
  the test charge radii are     1.0314  1.1712
  (the norm of the test charge is              1.0000)
       1 -64.4279       2 -64.4279       3 -64.4279       4 -64.4279       5 -64.4279
       6 -64.4279       7 -64.4279       8 -64.4279       9 -64.4279      10 -64.4279
      11 -64.4279      12 -64.4279      13 -64.4279      14 -64.4279      15 -64.4279
      16 -64.4279      17 -64.4279      18 -64.4279      19 -64.4279      20 -64.4279
      21 -64.4279      22 -64.4279      23 -64.4279      24 -64.4279      25 -64.4279
      26 -64.4279      27 -64.4279      28 -64.4279      29 -64.4279      30 -64.4279
      31 -64.4279      32 -64.4279      33 -85.9294      34 -85.9294      35 -85.9294
      36 -85.9294      37 -85.9294      38 -85.9294      39 -85.9294      40 -85.9294
      41 -85.9294      42 -85.9294      43 -85.9294      44 -85.9294      45 -85.9294
      46 -85.9294      47 -85.9294      48 -85.9294      49 -85.9294      50 -85.9294
      51 -85.9294      52 -85.9294      53 -85.9294      54 -85.9294      55 -85.9294
      56 -85.9294      57 -85.9294      58 -85.9294      59 -85.9294      60 -85.9294
      61 -85.9294      62 -85.9294      63 -85.9294      64 -85.9294
 
 
 
 E-fermi :   7.9181     XC(G=0): -10.5658     alpha+bet :-13.0839


 k-point     1 :       0.0000    0.0000    0.0000
  band No.  band energies     occupation 
      1      -8.2220      2.00000
      2      -8.2220      2.00000
      3      -8.2220      2.00000
      4      -8.2089      2.00000
      5      -8.2089      2.00000
      6      -8.2089      2.00000
      7      -8.2089      2.00000
      8      -8.2089      2.00000
      9      -8.2089      2.00000
     10      -8.1910      2.00000
     11      -8.1910      2.00000
     12      -8.1910      2.00000
     13      -8.1910      2.00000
     14      -8.1873      2.00000
     15      -8.1873      2.00000
     16      -8.1873      2.00000
     17      -8.1873      2.00000
     18      -8.1873      2.00000
     19      -8.1873      2.00000
     20      -8.1873      2.00000
     21      -8.1873      2.00000
     22      -8.1873      2.00000
     23      -8.1873      2.00000
     24      -8.1873      2.00000
     25      -8.1873      2.00000
     26      -8.1752      2.00000
     27      -8.1752      2.00000
     28      -8.1752      2.00000
     29      -8.1752      2.00000
     30      -8.1752      2.00000
     31      -8.1752      2.00000
     32      -8.1126      2.00000
     33      -8.1126      2.00000
     34      -8.1126      2.00000
     35      -8.0876      2.00000
     36      -8.0876      2.00000
     37      -8.0876      2.00000
     38      -8.0876      2.00000
     39      -8.0876      2.00000
     40      -8.0876      2.00000
     41      -8.0876      2.00000
     42      -8.0876      2.00000
     43      -8.0832      2.00000
     44      -8.0832      2.00000
     45      -8.0832      2.00000
     46      -8.0832      2.00000
     47      -8.0832      2.00000
     48      -8.0832      2.00000
     49      -8.0832      2.00000
     50      -8.0832      2.00000
     51      -8.0832      2.00000
     52      -8.0832      2.00000
     53      -8.0832      2.00000
     54      -8.0832      2.00000
     55      -8.0827      2.00000
     56      -8.0827      2.00000
     57      -8.0827      2.00000
     58      -8.0827      2.00000
     59      -8.0827      2.00000
     60      -8.0827      2.00000
     61      -8.0827      2.00000
     62      -8.0827      2.00000
     63      -8.0827      2.00000
     64      -8.0827      2.00000
     65      -8.0827      2.00000
     66      -8.0827      2.00000
     67      -8.0818      2.00000
     68      -8.0818      2.00000
     69      -8.0818      2.00000
     70      -8.0818      2.00000
     71      -8.0818      2.00000
     72      -8.0818      2.00000
     73      -8.0818      2.00000
     74      -8.0818      2.00000
     75      -8.0818      2.00000
     76      -8.0818      2.00000
     77      -8.0818      2.00000
     78      -8.0818      2.00000
     79      -8.0704      2.00000
     80      -8.0704      2.00000
     81      -8.0704      2.00000
     82      -8.0704      2.00000
     83      -8.0704      2.00000
     84      -8.0704      2.00000
     85      -8.0619      2.00000
     86      -8.0619      2.00000
     87      -8.0619      2.00000
     88      -8.0619      2.00000
     89      -8.0619      2.00000
     90      -8.0619      2.00000
     91      -8.0518      2.00000
     92      -8.0518      2.00000
     93      -8.0518      2.00000
     94      -8.0518      2.00000
     95      -8.0518      2.00000
     96      -8.0518      2.00000
     97      -8.0449      2.00000
     98      -8.0449      2.00000
     99      -8.0449      2.00000
    100      -8.0240      2.00000
    101      -8.0240      2.00000
    102      -8.0240      2.00000
    103      -8.0240      2.00000
    104      -8.0240      2.00000
    105      -8.0240      2.00000
    106      -8.0232      2.00000
    107      -8.0232      2.00000
    108      -8.0232      2.00000
    109      -8.0232      2.00000
    110      -8.0232      2.00000
    111      -8.0232      2.00000
    112      -8.0138      2.00000
    113      -8.0138      2.00000
    114      -8.0138      2.00000
    115      -8.0138      2.00000
    116      -8.0138      2.00000
    117      -8.0138      2.00000
    118      -8.0138      2.00000
    119      -8.0138      2.00000
    120      -8.0138      2.00000
    121      -8.0138      2.00000
    122      -8.0138      2.00000
    123      -8.0138      2.00000
    124      -8.0123      2.00000
    125      -8.0123      2.00000
    126      -8.0123      2.00000
    127      -8.0123      2.00000
    128      -8.0123      2.00000
    129      -8.0123      2.00000
    130      -8.0123      2.00000
    131      -8.0123      2.00000
    132      -8.0123      2.00000
    133      -8.0123      2.00000
    134      -8.0123      2.00000
    135      -8.0123      2.00000
    136      -8.0115      2.00000
    137      -8.0115      2.00000
    138      -8.0115      2.00000
    139      -8.0115      2.00000
    140      -8.0115      2.00000
    141      -8.0115      2.00000
    142      -8.0082      2.00000
    143      -8.0082      2.00000
    144      -8.0082      2.00000
    145      -8.0082      2.00000
    146      -8.0082      2.00000
    147      -8.0082      2.00000
    148      -8.0082      2.00000
    149      -8.0082      2.00000
    150      -8.0077      2.00000
    151      -8.0077      2.00000
    152      -8.0048      2.00000
    153      -8.0048      2.00000
    154      -8.0048      2.00000
    155      -8.0048      2.00000
    156      -8.0048      2.00000
    157      -8.0048      2.00000
    158      -8.0019      2.00000
    159      -8.0019      2.00000
    160      -8.0019      2.00000
    161      -5.8542      2.00000
    162      -4.7147      2.00000
    163      -4.7147      2.00000
    164      -4.7147      2.00000
    165      -4.7147      2.00000
    166      -4.7147      2.00000
    167      -4.7147      2.00000
    168      -3.7321      2.00000
    169      -3.7321      2.00000
    170      -3.7321      2.00000
    171      -3.7321      2.00000
    172      -3.7321      2.00000
    173      -3.7321      2.00000
    174      -3.7321      2.00000
    175      -3.7321      2.00000
    176      -3.7321      2.00000
    177      -3.7321      2.00000
    178      -3.7321      2.00000
    179      -3.7321      2.00000
    180      -3.4546      2.00000
    181      -3.4546      2.00000
    182      -3.4546      2.00000
    183      -3.4546      2.00000
    184      -2.2065      2.00000
    185      -2.2065      2.00000
    186      -2.2065      2.00000
    187      -2.0883      2.00000
    188      -2.0883      2.00000
    189      -2.0883      2.00000
    190      -2.0883      2.00000
    191      -2.0883      2.00000
    192      -2.0883      2.00000
    193      -0.4551      2.00000
    194      -0.4551      2.00000
    195      -0.4551      2.00000
    196      -0.2112      2.00000
    197      -0.2112      2.00000
    198      -0.2112      2.00000
    199      -0.2112      2.00000
    200      -0.2112      2.00000
    201      -0.2112      2.00000
    202      -0.1864      2.00000
    203      -0.1864      2.00000
    204      -0.1864      2.00000
    205      -0.1864      2.00000
    206       1.3849      2.00000
    207       1.3849      2.00000
    208       1.3849      2.00000
    209       1.3849      2.00000
    210       1.3849      2.00000
    211       1.3849      2.00000
    212       1.3849      2.00000
    213       1.3849      2.00000
    214       1.3849      2.00000
    215       1.3849      2.00000
    216       1.3849      2.00000
    217       1.3849      2.00000
    218       3.0255      2.00000
    219       3.0255      2.00000
    220       3.0255      2.00000
    221       3.0255      2.00000
    222       3.0255      2.00000
    223       3.0255      2.00000
    224       3.2712      2.00000
    225       3.2712      2.00000
    226       3.2712      2.00000
    227       3.2712      2.00000
    228       3.2712      2.00000
    229       3.2712      2.00000
    230       3.2712      2.00000
    231       3.2712      2.00000
    232       3.2712      2.00000
    233       3.2712      2.00000
    234       3.2712      2.00000
    235       3.2712      2.00000
    236       3.2761      2.00000
    237       3.2761      2.00000
    238       3.2761      2.00000
    239       3.2761      2.00000
    240       3.2761      2.00000
    241       3.2761      2.00000
    242       3.4999      2.00000
    243       3.4999      2.00000
    244       3.4999      2.00000
    245       3.4999      2.00000
    246       3.4999      2.00000
    247       3.4999      2.00000
    248       4.1566      2.00000
    249       4.1566      2.00000
    250       4.1566      2.00000
    251       4.1566      2.00000
    252       4.1566      2.00000
    253       4.1566      2.00000
    254       5.3825      2.00000
    255       5.3825      2.00000
    256       5.3825      2.00000
    257       5.3825      2.00000
    258       5.3825      2.00000
    259       5.3825      2.00000
    260       5.3825      2.00000
    261       5.3825      2.00000
    262       5.3825      2.00000
    263       5.3825      2.00000
    264       5.3825      2.00000
    265       5.3825      2.00000
    266       6.0376      2.00000
    267       6.0376      2.00000
    268       6.0376      2.00000
    269       6.0376      2.00000
    270       6.0376      2.00000
    271       6.0376      2.00000
    272       6.0376      2.00000
    273       6.0376      2.00000
    274       6.0376      2.00000
    275       6.0376      2.00000
    276       6.0376      2.00000
    277       6.0376      2.00000
    278       6.1583      2.00000
    279       6.1583      2.00000
    280       6.1583      2.00000
    281       6.1583      2.00000
    282       6.1583      2.00000
    283       6.1583      2.00000
    284       6.1583      2.00000
    285       6.1583      2.00000
    286       7.8154      2.00000
    287       7.8154      2.00000
    288       7.8154      2.00000
    289       8.2151      0.00000
    290       8.2151      0.00000
    291       8.2151      0.00000
    292       8.3885      0.00000
    293       8.3885      0.00000
    294       8.3885      0.00000
    295       8.6200      0.00000
    296       8.6200      0.00000
    297       8.6200      0.00000
    298       8.6200      0.00000
    299       8.6200      0.00000
    300       8.6200      0.00000
    301       8.7470      0.00000
    302       8.7470      0.00000
    303       8.7470      0.00000
    304       8.7470      0.00000
    305       9.7169      0.00000
    306       9.9797      0.00000
    307       9.9797      0.00000
    308       9.9797      0.00000
    309       9.9797      0.00000
    310       9.9797      0.00000
    311       9.9797      0.00000
    312       9.9797      0.00000
    313       9.9797      0.00000
    314       9.9797      0.00000
    315       9.9797      0.00000
    316       9.9797      0.00000
    317       9.9797      0.00000
    318      10.4135      0.00000
    319      10.4135      0.00000
    320      10.4135      0.00000
    321      10.6075      0.00000
    322      10.6075      0.00000
    323      10.6075      0.00000
    324      10.6075      0.00000
    325      10.6075      0.00000
    326      10.6075      0.00000
    327      11.4325      0.00000
    328      11.4325      0.00000
    329      11.4325      0.00000
    330      11.4325      0.00000
    331      11.4325      0.00000
    332      11.4325      0.00000
    333      11.4325      0.00000
    334      11.4325      0.00000
    335      12.1146      0.00000
    336      12.1146      0.00000
    337      12.1146      0.00000
    338      12.1147      0.00000
    339      12.1148      0.00000
    340      12.1153      0.00000
    341      12.3183      0.00000
    342      12.3186      0.00000
    343      12.3221      0.00000
    344      12.3299      0.00000
    345      12.3370      0.00000
    346      12.3512      0.00000
    347      12.3681      0.00000
    348      12.3688      0.00000
    349      12.3705      0.00000
    350      12.3966      0.00000

 k-point     2 :       0.3333    0.0000    0.0000
  band No.  band energies     occupation 
      1      -8.2190      2.00000
      2      -8.2190      2.00000
      3      -8.2163      2.00000
      4      -8.2125      2.00000
      5      -8.2125      2.00000
      6      -8.2060      2.00000
      7      -8.2060      2.00000
      8      -8.2060      2.00000
      9      -8.2060      2.00000
     10      -8.1999      2.00000
     11      -8.1979      2.00000
     12      -8.1979      2.00000
     13      -8.1979      2.00000
     14      -8.1979      2.00000
     15      -8.1900      2.00000
     16      -8.1900      2.00000
     17      -8.1900      2.00000
     18      -8.1900      2.00000
     19      -8.1882      2.00000
     20      -8.1882      2.00000
     21      -8.1882      2.00000
     22      -8.1882      2.00000
     23      -8.1788      2.00000
     24      -8.1788      2.00000
     25      -8.1788      2.00000
     26      -8.1788      2.00000
     27      -8.1756      2.00000
     28      -8.1756      2.00000
     29      -8.1756      2.00000
     30      -8.1756      2.00000
     31      -8.1469      2.00000
     32      -8.1226      2.00000
     33      -8.1088      2.00000
     34      -8.1088      2.00000
     35      -8.0981      2.00000
     36      -8.0981      2.00000
     37      -8.0873      2.00000
     38      -8.0873      2.00000
     39      -8.0873      2.00000
     40      -8.0873      2.00000
     41      -8.0865      2.00000
     42      -8.0865      2.00000
     43      -8.0865      2.00000
     44      -8.0865      2.00000
     45      -8.0862      2.00000
     46      -8.0862      2.00000
     47      -8.0862      2.00000
     48      -8.0862      2.00000
     49      -8.0855      2.00000
     50      -8.0855      2.00000
     51      -8.0855      2.00000
     52      -8.0855      2.00000
     53      -8.0841      2.00000
     54      -8.0841      2.00000
     55      -8.0841      2.00000
     56      -8.0841      2.00000
     57      -8.0840      2.00000
     58      -8.0840      2.00000
     59      -8.0840      2.00000
     60      -8.0840      2.00000
     61      -8.0836      2.00000
     62      -8.0836      2.00000
     63      -8.0836      2.00000
     64      -8.0836      2.00000
     65      -8.0833      2.00000
     66      -8.0833      2.00000
     67      -8.0833      2.00000
     68      -8.0833      2.00000
     69      -8.0786      2.00000
     70      -8.0786      2.00000
     71      -8.0786      2.00000
     72      -8.0786      2.00000
     73      -8.0733      2.00000
     74      -8.0733      2.00000
     75      -8.0733      2.00000
     76      -8.0733      2.00000
     77      -8.0718      2.00000
     78      -8.0718      2.00000
     79      -8.0718      2.00000
     80      -8.0718      2.00000
     81      -8.0677      2.00000
     82      -8.0677      2.00000
     83      -8.0655      2.00000
     84      -8.0655      2.00000
     85      -8.0640      2.00000
     86      -8.0640      2.00000
     87      -8.0640      2.00000
     88      -8.0640      2.00000
     89      -8.0604      2.00000
     90      -8.0604      2.00000
     91      -8.0563      2.00000
     92      -8.0563      2.00000
     93      -8.0562      2.00000
     94      -8.0562      2.00000
     95      -8.0561      2.00000
     96      -8.0561      2.00000
     97      -8.0420      2.00000
     98      -8.0384      2.00000
     99      -8.0384      2.00000
    100      -8.0342      2.00000
    101      -8.0290      2.00000
    102      -8.0290      2.00000
    103      -8.0222      2.00000
    104      -8.0222      2.00000
    105      -8.0222      2.00000
    106      -8.0222      2.00000
    107      -8.0220      2.00000
    108      -8.0220      2.00000
    109      -8.0220      2.00000
    110      -8.0220      2.00000
    111      -8.0183      2.00000
    112      -8.0183      2.00000
[...]
  0.000   0.000   0.000   0.000   0.020  -0.000  -0.000   0.000  -0.000   0.016  -0.000  -0.000   0.000  -0.000  -0.000  -0.000
 -0.000   0.000  -0.000   0.000  -0.000  -0.000  -0.000  -0.000   0.000  -0.000   1.558   0.028   0.000  -0.000  -0.000  -0.000
  0.000   0.000   0.000  -0.000  -0.000   0.000   0.000   0.000  -0.000  -0.000   0.028   0.001  -0.000   0.000   0.000   0.000
 -0.000  -0.000   0.000   0.030   0.000   0.000  -0.000   0.000   0.175   0.000   0.000   0.000   1.221   0.000   0.000   0.018
  0.030   0.000  -0.000   0.000   0.000   0.175   0.000   0.000   0.000  -0.000  -0.000   0.000   0.000   1.221  -0.000  -0.000
 -0.000   0.030  -0.000  -0.000  -0.000  -0.000   0.175  -0.000   0.000  -0.000  -0.000   0.000   0.000  -0.000   1.221  -0.000
 -0.000   0.000  -0.000   0.001  -0.000  -0.000   0.000   0.000   0.003   0.000  -0.000   0.000   0.018  -0.000  -0.000   0.000
  0.001   0.000  -0.000   0.000   0.000   0.003   0.000   0.000   0.000   0.000   0.000   0.000  -0.000   0.018   0.000   0.000
  0.000   0.001  -0.000   0.000   0.000  -0.000   0.003   0.000  -0.000   0.000   0.000  -0.000  -0.000  -0.000   0.018  -0.000


------------------------ aborting loop because EDIFF is reached ----------------------------------------


    CHARGE:  cpu time    0.4219: real time    0.4229
    FORLOC:  cpu time    0.0260: real time    0.0259
    FORNL :  cpu time    1.3298: real time    1.3294
    STRESS:  cpu time    3.9394: real time    3.9419
    FORCOR:  cpu time    0.0410: real time    0.0425
    FORHAR:  cpu time    0.0400: real time    0.0399
    MIXING:  cpu time    0.0040: real time    0.0035
    OFIELD:  cpu time    0.0000: real time    0.0007

  FORCE on cell =-STRESS in cart. coord.  units (eV):
  Direction    XX          YY          ZZ          XY          YZ          ZX
  --------------------------------------------------------------------------------------
  Alpha Z  1104.61778  1104.61778  1104.61778
  Ewald  -13608.66418-13608.66418-13608.66418     0.00000    -0.00000    -0.00000
  Hartree  7704.97593  7704.97593  7704.97593    -0.00000    -0.00000    -0.00000
  E(xc)   -3161.52096 -3161.52096 -3161.52096     0.00000     0.00000     0.00000
  Local   -1945.60733 -1945.60733 -1945.60733     0.00000    -0.00000     0.00000
  n-local  3382.82261  3389.47437  3380.53049    -8.86989    -3.62612    -3.62612
  augment  3360.26919  3360.26919  3360.26919    -0.00000     0.00000     0.00000
  Kinetic  3355.68813  3362.78974  3353.21142    -8.27185    -3.95062    -3.95062
  Fock        0.00000     0.00000     0.00000     0.00000     0.00000     0.00000
  -------------------------------------------------------------------------------------
  Total     195.57602   195.57602   195.57602    -0.00000    -0.00000     0.00000
  in kB     222.08810   222.08810   222.08810    -0.00000    -0.00000     0.00000
  external pressure =      222.09 kB  Pullay stress =        0.00 kB


 VOLUME and BASIS-vectors are now :
 -----------------------------------------------------------------------------
  energy-cutoff  :      500.00
  volume of cell :     1410.92
      direct lattice vectors                 reciprocal lattice vectors
    11.215887233  0.000000000  0.000000000     0.089159242  0.000000000  0.000000000
     0.000000000 11.215887233  0.000000000     0.000000000  0.089159242  0.000000000
     0.000000000  0.000000000 11.215887233     0.000000000  0.000000000  0.089159242

  length of vectors
    11.215887233 11.215887233 11.215887233     0.089159242  0.089159242  0.089159242


 FORCES acting on ions
    electron-ion (+dipol)            ewald-force                    non-local-force                 convergence-correction
 -----------------------------------------------------------------------------------------------
   -.106E-12 -.266E-14 -.623E-13   0.142E-12 -.124E-13 -.355E-13   -.571E-16 0.976E-18 -.186E-16   -.668E-12 0.264E-12 -.336E-12
   0.106E-11 -.274E-13 0.257E-10   0.149E-12 0.586E-13 -.568E-13   0.104E-16 -.984E-17 0.173E-17   0.643E-12 0.182E-12 -.989E-12
   -.887E-13 0.534E-12 0.498E-12   0.135E-12 0.684E-13 -.373E-13   -.808E-17 -.202E-16 -.185E-16   -.229E-12 -.317E-12 -.154E-11
   0.104E-11 -.233E-11 0.951E-11   0.155E-12 0.568E-13 0.302E-13   0.455E-17 -.932E-17 -.125E-17   0.202E-12 0.277E-12 -.116E-11
   0.526E-12 0.331E-13 -.574E-11   0.114E-12 0.711E-13 -.426E-13   -.186E-16 -.190E-16 -.177E-16   0.178E-12 0.179E-12 0.155E-11
   0.149E-11 -.316E-14 0.658E-11   0.128E-12 0.888E-13 -.533E-13   0.314E-17 0.778E-17 0.651E-18   -.239E-12 0.462E-12 0.247E-11
   0.555E-12 -.246E-11 0.530E-12   0.135E-12 0.284E-13 -.338E-13   0.144E-16 -.100E-17 0.176E-16   0.187E-12 0.143E-12 0.767E-12
   0.147E-11 -.155E-10 0.111E-10   0.121E-12 0.302E-13 -.488E-13   0.168E-17 -.332E-16 -.121E-16   -.268E-12 0.701E-13 0.577E-12
   0.523E-12 0.109E-11 -.607E-11   0.100E-12 0.675E-13 -.101E-12   -.754E-17 -.233E-16 -.103E-16   0.170E-12 -.264E-13 -.610E-12
   0.147E-11 -.201E-11 -.239E-11   0.870E-13 0.524E-13 -.702E-13   0.153E-16 -.160E-16 -.241E-16   -.212E-12 -.716E-13 -.119E-11
   0.546E-12 -.909E-12 -.761E-12   0.105E-12 0.103E-12 -.249E-13   0.813E-18 -.469E-17 -.306E-17   -.110E-12 0.452E-12 -.370E-12
   0.146E-11 0.136E-10 -.514E-11   0.112E-12 0.595E-13 -.320E-13   -.377E-16 0.661E-17 -.125E-16   0.827E-13 0.870E-12 0.108E-13
   -.722E-13 0.152E-11 0.524E-12   0.112E-12 0.133E-13 -.195E-13   0.819E-17 -.104E-16 -.810E-17   -.145E-12 0.290E-12 -.146E-11
   0.104E-11 0.231E-11 -.408E-11   0.117E-12 0.675E-13 -.711E-13   0.185E-16 -.172E-16 -.156E-16   0.141E-12 -.267E-12 -.993E-12
   -.431E-13 0.105E-11 0.996E-12   0.112E-12 -.888E-14 -.888E-14   -.672E-17 -.251E-16 -.101E-16   0.371E-12 -.172E-12 0.270E-12
   0.104E-11 -.424E-11 0.845E-11   0.977E-13 -.178E-13 -.515E-13   0.184E-16 -.900E-17 0.128E-16   -.357E-12 -.105E-12 0.366E-12
   0.531E-12 0.466E-11 0.598E-12   0.853E-13 0.853E-13 0.426E-13   -.217E-18 -.347E-16 -.954E-17   0.291E-12 -.151E-12 0.602E-12
   0.152E-11 0.144E-10 0.914E-11   0.888E-13 0.799E-13 0.941E-13   0.900E-17 -.105E-16 0.136E-18   -.370E-12 -.152E-12 0.191E-12
   0.563E-12 -.434E-13 -.131E-12   0.586E-13 0.373E-13 0.000E+00   -.775E-17 -.298E-16 -.916E-17   -.428E-12 -.332E-13 -.122E-11
   0.142E-11 -.132E-13 0.131E-10   0.764E-13 0.515E-13 0.142E-13   0.104E-16 -.194E-16 -.307E-16   0.356E-12 0.415E-13 -.224E-11
   -.646E-13 -.235E-13 0.106E-11   0.568E-13 -.178E-14 0.711E-13   0.160E-16 -.179E-16 0.157E-16   0.348E-12 0.184E-12 0.531E-12
   0.104E-11 0.133E-13 -.308E-12   0.568E-13 0.568E-13 0.114E-12   0.363E-17 -.265E-16 -.802E-17   -.338E-12 0.473E-13 0.107E-11
   0.507E-12 0.113E-11 0.461E-12   0.112E-12 0.711E-14 0.480E-13   0.111E-16 -.310E-16 -.851E-17   0.314E-12 -.210E-12 0.882E-12
   0.154E-11 0.905E-11 0.276E-10   0.126E-12 0.711E-14 0.187E-13   -.223E-16 -.223E-16 -.160E-16   -.346E-12 -.445E-12 0.144E-11
   -.938E-13 0.498E-12 0.146E-11   0.870E-13 -.426E-13 -.551E-13   0.401E-17 -.110E-16 -.150E-16   -.302E-13 -.608E-12 0.177E-11
   0.106E-11 -.983E-12 -.897E-12   0.728E-13 -.426E-13 0.195E-13   -.103E-16 -.149E-16 -.200E-16   -.104E-13 -.481E-12 0.144E-11
   -.115E-12 0.156E-11 0.145E-11   0.426E-13 0.426E-13 0.835E-13   -.149E-16 -.279E-16 -.109E-16   0.219E-12 0.565E-12 0.169E-11
   0.107E-11 -.160E-10 -.431E-11   0.711E-13 0.711E-13 0.853E-13   -.152E-17 -.219E-16 -.377E-17   -.224E-12 0.462E-12 0.126E-11
   -.621E-13 0.103E-11 -.461E-13   0.817E-13 0.426E-13 0.648E-13   -.965E-17 -.244E-16 -.290E-17   -.220E-12 -.221E-12 -.975E-14
   0.102E-11 0.698E-11 -.100E-11   0.728E-13 0.213E-13 0.249E-13   -.327E-16 -.101E-16 -.227E-16   0.171E-12 -.240E-12 -.171E-12
   0.486E-12 0.347E-11 -.569E-12   0.568E-13 0.639E-13 0.320E-13   -.465E-16 -.139E-16 -.288E-16   -.151E-12 -.456E-12 -.620E-12
   0.147E-11 0.971E-11 0.235E-10   0.639E-13 0.577E-13 0.204E-13   0.943E-17 -.175E-16 -.688E-17   0.115E-12 -.101E-11 -.398E-12
   0.284E-12 -.838E-12 0.545E-12   -.675E-13 -.107E-13 -.533E-14   -.134E-16 0.772E-17 -.572E-17   -.240E-12 -.396E-14 0.334E-12
   0.247E-12 0.107E-12 0.772E-13   -.711E-13 -.284E-13 0.160E-13   -.287E-17 0.207E-16 0.973E-17   0.186E-12 0.104E-13 0.324E-12
   0.169E-12 0.265E-12 0.429E-12   -.746E-13 -.395E-13 -.302E-13   0.102E-16 0.436E-17 0.439E-17   0.273E-13 0.259E-12 0.308E-12
   0.308E-12 -.115E-12 0.112E-12   -.888E-13 -.142E-13 0.178E-14   -.164E-16 0.121E-16 0.159E-16   -.728E-13 0.234E-12 0.267E-12
   0.291E-12 -.187E-12 -.245E-11   -.780E-13 -.271E-13 0.222E-13   -.108E-17 -.225E-17 0.196E-16   -.437E-13 -.106E-13 -.369E-12
   0.342E-12 0.164E-12 -.101E-11   -.854E-13 -.124E-13 -.302E-13   0.417E-17 0.542E-18 0.867E-17   0.133E-13 -.740E-13 -.105E-12
   0.262E-12 -.202E-11 -.457E-12   -.762E-13 -.808E-13 -.252E-13   0.166E-16 0.110E-16 0.420E-17   -.554E-13 0.204E-12 -.594E-12
   0.329E-12 -.761E-12 0.398E-12   -.817E-13 -.737E-13 0.121E-13   0.970E-17 0.767E-17 0.120E-16   0.694E-14 0.535E-13 -.497E-12
   0.279E-12 -.225E-11 0.718E-14   -.747E-13 -.115E-13 -.160E-13   0.922E-18 0.139E-16 0.217E-18   -.105E-12 -.113E-12 0.432E-12
   0.375E-12 -.510E-12 0.267E-12   -.909E-13 0.533E-14 -.302E-13   0.694E-17 0.170E-16 0.192E-17   0.745E-13 -.500E-13 0.101E-12
   0.239E-12 -.997E-12 -.609E-13   -.868E-13 -.695E-13 -.178E-14   -.867E-18 0.160E-16 0.135E-16   -.337E-13 -.157E-12 0.417E-12
   0.334E-12 -.140E-12 -.937E-12   -.906E-13 -.304E-13 -.231E-13   0.477E-17 0.222E-17 0.669E-17   0.176E-13 -.395E-13 0.352E-12
   0.308E-12 0.648E-12 0.569E-12   -.853E-13 -.300E-13 -.102E-13   0.596E-17 0.276E-16 0.110E-16   -.229E-13 -.274E-12 0.240E-12
   0.241E-12 -.155E-12 0.925E-13   -.999E-13 -.345E-13 0.289E-13   -.123E-16 0.136E-18 0.192E-16   0.624E-14 -.210E-12 0.187E-12
   0.231E-12 -.328E-12 0.664E-12   -.697E-13 -.369E-13 -.247E-13   0.737E-17 0.922E-18 0.169E-16   0.219E-12 -.328E-13 -.677E-12
   0.262E-12 -.160E-12 0.171E-12   -.928E-13 -.488E-14 -.203E-13   0.138E-16 0.255E-16 0.919E-17   -.216E-12 -.685E-13 -.539E-12
   0.299E-12 0.694E-12 -.303E-12   -.854E-13 -.103E-13 -.522E-13   -.180E-16 0.943E-17 0.135E-16   -.870E-13 -.193E-12 -.429E-12
   0.319E-12 0.241E-13 0.120E-12   -.103E-12 0.110E-13 -.628E-13   0.900E-17 0.185E-16 0.127E-16   0.472E-13 -.320E-13 -.368E-12
   0.260E-12 0.123E-12 -.674E-12   -.870E-13 -.608E-13 -.346E-13   0.927E-17 0.453E-17 0.913E-17   -.486E-13 0.145E-12 0.379E-12
   0.233E-12 -.125E-12 -.100E-11   -.895E-13 0.000E+00 -.284E-13   -.309E-17 0.164E-16 0.526E-17   0.392E-13 0.783E-13 0.950E-13
   0.199E-12 -.619E-12 -.738E-12   -.106E-12 -.187E-13 -.664E-13   0.215E-16 0.127E-16 0.111E-16   0.587E-13 0.491E-13 -.348E-12
   0.280E-12 0.134E-13 0.208E-12   -.103E-12 -.888E-15 0.822E-14   -.786E-17 0.140E-16 0.130E-16   -.651E-13 0.865E-13 -.326E-12
   0.302E-12 -.404E-12 -.423E-12   -.888E-13 -.582E-13 -.622E-13   -.238E-16 0.154E-16 0.243E-16   0.307E-13 0.387E-13 -.404E-12
   0.334E-12 0.502E-12 -.833E-12   -.944E-13 -.586E-13 -.124E-13   -.113E-16 0.857E-17 0.166E-16   -.499E-13 0.746E-13 -.969E-13
   0.266E-12 0.126E-11 0.636E-12   -.108E-12 -.235E-13 -.409E-13   -.103E-16 0.229E-16 0.226E-16   -.442E-13 -.442E-13 -.297E-12
   0.267E-12 -.212E-12 0.186E-12   -.112E-12 -.409E-13 -.231E-13   -.396E-17 0.138E-16 0.335E-16   0.120E-13 0.258E-13 -.261E-12
   0.152E-12 -.564E-12 0.670E-12   -.131E-12 -.366E-13 -.244E-13   0.200E-16 0.664E-17 0.183E-16   -.873E-13 0.644E-13 -.222E-12
   0.293E-12 -.678E-13 0.244E-12   -.104E-12 -.512E-13 -.209E-13   -.314E-17 0.203E-16 0.569E-18   0.688E-13 -.542E-14 -.193E-12
   0.253E-12 -.688E-12 -.816E-12   -.995E-13 -.266E-13 -.266E-13   -.106E-16 0.106E-16 0.309E-17   -.126E-12 0.543E-13 0.645E-12
   0.285E-12 -.161E-12 0.162E-12   -.115E-12 -.338E-13 -.177E-14   0.613E-17 0.420E-17 0.102E-16   0.770E-13 0.282E-14 0.523E-12
   0.305E-12 -.313E-12 -.390E-13   -.119E-12 0.480E-13 -.768E-13   0.987E-17 0.113E-16 0.201E-17   0.191E-13 0.152E-12 0.559E-12
   0.260E-12 -.671E-12 -.117E-11   -.135E-12 0.302E-13 -.679E-13   0.596E-18 0.223E-16 0.154E-16   0.469E-14 0.468E-13 0.499E-12
 -----------------------------------------------------------------------------------------------
   0.326E-10 0.196E-10 0.105E-09   0.135E-12 0.434E-12 -.709E-12   -.105E-15 -.140E-15 0.623E-16   -.945E-12 -.206E-12 0.351E-11
 
 
 POSITION                                       TOTAL-FORCE (eV/Angst)
 -----------------------------------------------------------------------------------
      0.00000      0.00000      0.00000         0.000000      0.000000     -0.000000
      5.60794      0.00000      0.00000        -0.000000     -0.000000     -0.000000
      0.00000      2.80397      2.80397         0.000000      0.000000      0.000000
      5.60794      2.80397      2.80397        -0.000000     -0.000000      0.000000
      2.80397      0.00000      8.41192         0.000000      0.000000      0.000000
      8.41192      0.00000      8.41192        -0.000000      0.000000      0.000000
      2.80397      2.80397      5.60794        -0.000000     -0.000000     -0.000000
      8.41192      2.80397      5.60794         0.000000      0.000000      0.000000
      2.80397      5.60794      2.80397         0.000000     -0.000000      0.000000
      8.41192      5.60794      2.80397        -0.000000      0.000000     -0.000000
      2.80397      8.41192      0.00000        -0.000000     -0.000000     -0.000000
      8.41192      8.41192      0.00000         0.000000      0.000000     -0.000000
      0.00000      8.41192      2.80397        -0.000000     -0.000000      0.000000
      5.60794      8.41192      2.80397         0.000000      0.000000      0.000000
      0.00000      5.60794      5.60794         0.000000     -0.000000     -0.000000
      5.60794      5.60794      5.60794        -0.000000     -0.000000     -0.000000
      2.80397      8.41192      5.60794         0.000000      0.000000      0.000000
      8.41192      8.41192      5.60794        -0.000000     -0.000000     -0.000000
      2.80397      0.00000      2.80397        -0.000000      0.000000      0.000000
      8.41192      0.00000      2.80397        -0.000000      0.000000     -0.000000
      0.00000      0.00000      5.60794         0.000000     -0.000000     -0.000000
      5.60794      0.00000      5.60794         0.000000      0.000000     -0.000000
      2.80397      5.60794      8.41192         0.000000     -0.000000      0.000000
      8.41192      5.60794      8.41192         0.000000      0.000000      0.000000
      0.00000      2.80397      8.41192        -0.000000      0.000000      0.000000
      5.60794      2.80397      8.41192         0.000000     -0.000000      0.000000
      0.00000      8.41192      8.41192         0.000000     -0.000000      0.000000
      5.60794      8.41192      8.41192         0.000000     -0.000000      0.000000
      0.00000      5.60794      0.00000        -0.000000     -0.000000     -0.000000
      5.60794      5.60794      0.00000         0.000000      0.000000     -0.000000
      2.80397      2.80397      0.00000         0.000000      0.000000     -0.000000
      8.41192      2.80397      0.00000        -0.000000     -0.000000     -0.000000
      7.00993      7.00993      7.00993        -0.000000      0.000000     -0.000000
      1.40199      7.00993      7.00993        -0.000000     -0.000000     -0.000000
      7.00993      9.81390      9.81390        -0.000000     -0.000000     -0.000000
      1.40199      9.81390      9.81390        -0.000000     -0.000000     -0.000000
      9.81390      7.00993      4.20596        -0.000000     -0.000000     -0.000000
      4.20596      7.00993      4.20596        -0.000000     -0.000000     -0.000000
      9.81390      9.81390      1.40199        -0.000000     -0.000000     -0.000000
      4.20596      9.81390      1.40199        -0.000000     -0.000000     -0.000000
      9.81390      1.40199      9.81390        -0.000000     -0.000000     -0.000000
      4.20596      1.40199      9.81390        -0.000000     -0.000000     -0.000000
      9.81390      4.20596      7.00993        -0.000000     -0.000000     -0.000000
      4.20596      4.20596      7.00993        -0.000000      0.000000     -0.000000
      7.00993      4.20596      9.81390        -0.000000     -0.000000     -0.000000
      1.40199      4.20596      9.81390        -0.000000      0.000000     -0.000000
      7.00993      1.40199      1.40199        -0.000000      0.000000     -0.000000
      1.40199      1.40199      1.40199        -0.000000     -0.000000     -0.000000
      9.81390      4.20596      1.40199        -0.000000     -0.000000     -0.000000
      4.20596      4.20596      1.40199        -0.000000     -0.000000     -0.000000
      9.81390      7.00993      9.81390        -0.000000      0.000000     -0.000000
      4.20596      7.00993      9.81390        -0.000000     -0.000000     -0.000000
      7.00993      7.00993      1.40199        -0.000000     -0.000000     -0.000000
      1.40199      7.00993      1.40199        -0.000000     -0.000000     -0.000000
      9.81390      1.40199      4.20596        -0.000000     -0.000000     -0.000000
      4.20596      1.40199      4.20596        -0.000000      0.000000     -0.000000
      7.00993      9.81390      4.20596        -0.000000     -0.000000     -0.000000
      1.40199      9.81390      4.20596        -0.000000      0.000000     -0.000000
      7.00993      4.20596      4.20596        -0.000000      0.000000     -0.000000
      1.40199      4.20596      4.20596        -0.000000     -0.000000     -0.000000
      7.00993      1.40199      7.00993        -0.000000     -0.000000     -0.000000
      1.40199      1.40199      7.00993        -0.000000     -0.000000     -0.000000
      9.81390      9.81390      7.00993        -0.000000     -0.000000     -0.000000
      4.20596      9.81390      7.00993        -0.000000     -0.000000     -0.000000
 -----------------------------------------------------------------------------------
    total drift:                                0.000000      0.000000      0.000000


--------------------------------------------------------------------------------------------------------



  FREE ENERGIE OF THE ION-ELECTRON SYSTEM (eV)
  ---------------------------------------------------
  free  energy   TOTEN  =      -257.21031627 eV

  energy  without entropy=     -257.21031627  energy(sigma->0) =     -257.21031627
 


--------------------------------------------------------------------------------------------------------


    POTLOK:  cpu time    0.0370: real time    0.0361


--------------------------------------------------------------------------------------------------------




--------------------------------------------------------------------------------------------------------


  
 reached required accuracy - stopping structural energy minimisation
     LOOP+:  cpu time  141.7345: real time  142.3216
    4ORBIT:  cpu time    0.0010: real time    0.0000

 total amount of memory used by VASP on root node    78092. kBytes
========================================================================

   base      :      30000. kBytes
   nonlr-proj:       6149. kBytes
   fftplans  :       4762. kBytes
   grid      :       7276. kBytes
   one-center:        248. kBytes
   wavefun   :      29657. kBytes
 
  
  
 General timing and accounting informations for this job:
 ========================================================
  
                  Total CPU time used (sec):      147.325
                            User time (sec):      143.084
                          System time (sec):        4.240
                         Elapsed time (sec):      148.321
  
                   Maximum memory used (kb):      109344.
                   Average memory used (kb):           0.
  
                          Minor page faults:      1587237
                          Major page faults:            6
                 Voluntary context switches:         2254
